 Entering Gaussian System, Link 0=g16
 Input=1_activation_product_gen.com
 Output=1_activation_product_gen.log
 Initial command:
 /usr/public/gaussian//g16/l1.exe "/scratch/xuhq/Gau-152283.inp" -scrdir="/scratch/xuhq/"
 Entering Link 1 = /usr/public/gaussian//g16/l1.exe PID=    152284.
  
 Copyright (c) 1988,1990,1992,1993,1995,1998,2003,2009,2016,
            Gaussian, Inc.  All Rights Reserved.
  
 This is part of the Gaussian(R) 16 program.  It is based on
 the Gaussian(R) 09 system (copyright 2009, Gaussian, Inc.),
 the Gaussian(R) 03 system (copyright 2003, Gaussian, Inc.),
 the Gaussian(R) 98 system (copyright 1998, Gaussian, Inc.),
 the Gaussian(R) 94 system (copyright 1995, Gaussian, Inc.),
 the Gaussian 92(TM) system (copyright 1992, Gaussian, Inc.),
 the Gaussian 90(TM) system (copyright 1990, Gaussian, Inc.),
 the Gaussian 88(TM) system (copyright 1988, Gaussian, Inc.),
 the Gaussian 86(TM) system (copyright 1986, Carnegie Mellon
 University), and the Gaussian 82(TM) system (copyright 1983,
 Carnegie Mellon University). Gaussian is a federally registered
 trademark of Gaussian, Inc.
  
 This software contains proprietary and confidential information,
 including trade secrets, belonging to Gaussian, Inc.
  
 This software is provided under written license and may be
 used, copied, transmitted, or stored only in accord with that
 written license.
  
 The following legend is applicable only to US Government
 contracts under FAR:
  
                    RESTRICTED RIGHTS LEGEND
  
 Use, reproduction and disclosure by the US Government is
 subject to restrictions as set forth in subparagraphs (a)
 and (c) of the Commercial Computer Software - Restricted
 Rights clause in FAR 52.227-19.
  
 Gaussian, Inc.
 340 Quinnipiac St., Bldg. 40, Wallingford CT 06492
  
  
 ---------------------------------------------------------------
 Warning -- This program may not be used in any manner that
 competes with the business of Gaussian, Inc. or will provide
 assistance to any competitor of Gaussian, Inc.  The licensee
 of this program is prohibited from giving any competitor of
 Gaussian, Inc. access to this program.  By using this program,
 the user acknowledges that Gaussian, Inc. is engaged in the
 business of creating and licensing software in the field of
 computational chemistry and represents and warrants to the
 licensee that it is not a competitor of Gaussian, Inc. and that
 it will not use this program in any manner prohibited above.
 ---------------------------------------------------------------
  

 Cite this work as:
 Gaussian 16, Revision A.03,
 M. J. Frisch, G. W. Trucks, H. B. Schlegel, G. E. Scuseria, 
 M. A. Robb, J. R. Cheeseman, G. Scalmani, V. Barone, 
 G. A. Petersson, H. Nakatsuji, X. Li, M. Caricato, A. V. Marenich, 
 J. Bloino, B. G. Janesko, R. Gomperts, B. Mennucci, H. P. Hratchian, 
 J. V. Ortiz, A. F. Izmaylov, J. L. Sonnenberg, D. Williams-Young, 
 F. Ding, F. Lipparini, F. Egidi, J. Goings, B. Peng, A. Petrone, 
 T. Henderson, D. Ranasinghe, V. G. Zakrzewski, J. Gao, N. Rega, 
 G. Zheng, W. Liang, M. Hada, M. Ehara, K. Toyota, R. Fukuda, 
 J. Hasegawa, M. Ishida, T. Nakajima, Y. Honda, O. Kitao, H. Nakai, 
 T. Vreven, K. Throssell, J. A. Montgomery, Jr., J. E. Peralta, 
 F. Ogliaro, M. J. Bearpark, J. J. Heyd, E. N. Brothers, K. N. Kudin, 
 V. N. Staroverov, T. A. Keith, R. Kobayashi, J. Normand, 
 K. Raghavachari, A. P. Rendell, J. C. Burant, S. S. Iyengar, 
 J. Tomasi, M. Cossi, J. M. Millam, M. Klene, C. Adamo, R. Cammi, 
 J. W. Ochterski, R. L. Martin, K. Morokuma, O. Farkas, 
 J. B. Foresman, and D. J. Fox, Gaussian, Inc., Wallingford CT, 2016.
 
 ******************************************
 Gaussian 16:  ES64L-G16RevA.03 25-Dec-2016
                 2-Jun-2019 
 ******************************************
 %mem=32GB
 %nprocshared=28
 Will use up to   28 processors via shared memory.
 %chk=1_activation_product_gen.chk
 ------------------------------------------
 # freq opt bp86/gen geom=check guess=check
 ------------------------------------------
 1/18=20,19=15,26=3,29=2,38=1/1,3;
 2/9=110,12=2,40=1/2;
 3/5=7,11=2,14=-4,25=1,30=1,71=1,74=404,116=-2/1,2,3;
 4/5=1/1;
 5/5=2,38=6/2;
 6/7=2,8=2,9=2,10=2,28=1/1;
 7//1,2,3,16;
 1/18=20,19=15,26=3/3(2);
 2/9=110/2;
 99//99;
 2/9=110/2;
 3/5=7,6=1,11=2,14=-2,25=1,30=1,71=1,74=404,82=7/1,2,3;
 4/5=5,16=3,69=1/1;
 5/5=2,38=5/2;
 7//1,2,3,16;
 1/18=20,19=15,26=3/3(-5);
 2/9=110/2;
 6/7=2,8=2,9=2,10=2,19=2,28=1/1;
 99/9=1/99;
 ----------
 0_catalyst
 ----------
 Structure from the checkpoint file:  "1_activation_product_gen.chk"
 Charge =  0 Multiplicity = 2
 Redundant internal coordinates found in file.  (old form).
 C,0,4.9639897533,-0.7036996185,1.351831193
 C,0,3.6135242264,-0.6684418046,0.9671415852
 C,0,2.5787464148,-0.6344853945,1.9350911867
 C,0,2.9521196934,-0.6193761579,3.302308154
 C,0,4.3014057263,-0.652966595,3.6868937929
 C,0,5.3152008022,-0.6955385723,2.7129185636
 H,0,5.7486475136,-0.742036617,0.5791295637
 H,0,3.3610866602,-0.6983382674,-0.104838867
 H,0,2.1628376817,-0.5585256995,4.0681949222
 H,0,4.564347578,-0.6337439279,4.7569418051
 H,0,6.3748439805,-0.7166939801,3.0136077768
 C,0,1.1380245696,-0.6238644383,1.5455328533
 C,0,0.7476252233,0.311625442,0.3990612069
 H,0,1.5715846489,0.35681122,-0.3485581625
 H,0,0.6389435846,1.3469906156,0.7863521224
 N,0,-0.4767199725,-0.0152735241,-0.3159362662
 S,0,-1.8917086914,0.9111511876,-0.1115284105
 N,0,-2.6883019269,-0.0860830739,0.9738000443
 O,0,-2.5699809084,0.9305676344,-1.438962453
 O,0,-1.4442418701,2.1910103781,0.4984086383
 C,0,-0.5280975585,-1.2172012326,-1.1512708397
 C,0,0.3443462605,-1.1027298054,-2.3954694938
 H,0,-1.5859528609,-1.3685573133,-1.4470890054
 H,0,-0.2235694521,-2.1018610733,-0.5487903562
 C,0,1.3384148901,-2.0619233593,-2.6756009004
 C,0,2.1273601008,-1.9596405215,-3.8367273999
 C,0,0.1550809271,-0.029597208,-3.2946785906
 C,0,0.9439125308,0.0745988313,-4.451231311
 C,0,1.931908843,-0.89015519,-4.7265970374
 H,0,2.5501400194,-0.8059817785,-5.6348044129
 H,0,0.7852797434,0.9143288538,-5.1470884939
 H,0,1.4952003264,-2.9006934972,-1.9763644133
 H,0,2.9005966479,-2.717243124,-4.0429746731
 H,0,-0.62422812,0.7173920906,-3.0709071747
 C,0,0.2139729311,-1.3632074292,2.2019651783
 H,0,0.5067620818,-2.0379798642,3.0223396166
 H,0,-0.8543552075,-1.3042470778,1.9304154606
 C,0,-5.1251187124,2.5530090484,-0.3028322668
 N,0,-4.5952670754,2.0966055785,0.8964567041
 H,0,-5.3636821556,4.5818296697,-1.2583689983
 C,0,-4.1275262165,3.2372273598,1.5335799732
 C,0,-4.3655293615,4.4139825761,0.7290704017
 H,0,-4.0856836029,5.4331122706,1.0233299385
 C,0,-5.0056396988,3.9900700395,-0.406722124
 C,0,-3.5801549569,3.2750621644,2.8107197286
 N,0,-3.9314603865,0.8895644379,3.3260636341
 C,0,-3.7453742224,0.1448386858,4.4808530723
 C,0,-3.2532329579,0.9774824799,5.556638765
 H,0,-3.0476580595,0.6208038318,6.5738243013
 C,0,-3.0951463622,2.2376237975,5.0370657913
 H,0,-2.7379807268,3.1482246832,5.5342368146
 C,0,-3.520851969,2.1712928867,3.6567489274
 C,0,-5.6699811916,1.7497447364,-1.2977051109
 H,0,-6.1000616308,-2.7059814949,-2.4929409563
 C,0,-5.9076103056,-1.7774895214,-1.9406985016
 C,0,-5.3796455531,-1.7195531539,-0.5955042155
 H,0,-6.5209176328,-0.1065467164,-3.2855425341
 N,0,-5.2655675409,-0.4044550087,-0.1663849181
 C,0,-5.6931034334,0.3600831517,-1.2400417063
 C,0,-6.1227220411,-0.4810472969,-2.3342877373
 C,0,-3.9454748544,-1.2281671577,4.6002318342
 H,0,-4.7905129302,-4.9969066915,2.0339743187
 C,0,-4.6512185925,-3.9628035986,2.3737670259
 C,0,-4.3809273807,-3.5005068406,3.6368842752
 H,0,-4.2396538564,-4.0706824131,4.5637890676
 C,0,-4.2941392148,-2.0582867902,3.5379957983
 N,0,-4.5478980625,-1.6347077593,2.2446904709
 C,0,-4.7577589491,-2.7962250901,1.522806666
 C,0,-5.1059706989,-2.8463700733,0.1749928574
 Co,0,-4.3823818952,0.2210662671,1.4971941665
 H,0,-6.047186529,2.2369445681,-2.2080337859
 H,0,-5.2403443214,-3.8340924592,-0.2894260528
 H,0,-3.7652005515,-1.6916200796,5.5810673553
 H,0,-3.2274831605,4.2428138042,3.1946516172
 Recover connectivity data from disk.

 GradGradGradGradGradGradGradGradGradGradGradGradGradGradGradGradGradGrad
 Berny optimization.
 Initialization pass.
                           ----------------------------
                           !    Initial Parameters    !
                           ! (Angstroms and Degrees)  !
 --------------------------                            --------------------------
 ! Name  Definition              Value          Derivative Info.                !
 --------------------------------------------------------------------------------
 ! R1    R(1,2)                  1.4046         estimate D2E/DX2                !
 ! R2    R(1,6)                  1.4057         estimate D2E/DX2                !
 ! R3    R(1,7)                  1.1019         estimate D2E/DX2                !
 ! R4    R(2,3)                  1.4173         estimate D2E/DX2                !
 ! R5    R(2,8)                  1.1017         estimate D2E/DX2                !
 ! R6    R(3,4)                  1.4174         estimate D2E/DX2                !
 ! R7    R(3,12)                 1.4925         estimate D2E/DX2                !
 ! R8    R(4,5)                  1.4034         estimate D2E/DX2                !
 ! R9    R(4,9)                  1.1015         estimate D2E/DX2                !
 ! R10   R(5,6)                  1.4065         estimate D2E/DX2                !
 ! R11   R(5,10)                 1.102          estimate D2E/DX2                !
 ! R12   R(6,11)                 1.1017         estimate D2E/DX2                !
 ! R13   R(12,13)                1.5303         estimate D2E/DX2                !
 ! R14   R(12,35)                1.3533         estimate D2E/DX2                !
 ! R15   R(13,14)                1.1135         estimate D2E/DX2                !
 ! R16   R(13,15)                1.1108         estimate D2E/DX2                !
 ! R17   R(13,16)                1.455          estimate D2E/DX2                !
 ! R18   R(16,17)                1.7036         estimate D2E/DX2                !
 ! R19   R(16,21)                1.4646         estimate D2E/DX2                !
 ! R20   R(17,18)                1.6754         estimate D2E/DX2                !
 ! R21   R(17,19)                1.4908         estimate D2E/DX2                !
 ! R22   R(17,20)                1.4867         estimate D2E/DX2                !
 ! R23   R(18,70)                1.7995         estimate D2E/DX2                !
 ! R24   R(21,22)                1.5239         estimate D2E/DX2                !
 ! R25   R(21,23)                1.1088         estimate D2E/DX2                !
 ! R26   R(21,24)                1.1128         estimate D2E/DX2                !
 ! R27   R(22,25)                1.4095         estimate D2E/DX2                !
 ! R28   R(22,27)                1.4128         estimate D2E/DX2                !
 ! R29   R(25,26)                1.4075         estimate D2E/DX2                !
 ! R30   R(25,32)                1.1032         estimate D2E/DX2                !
 ! R31   R(26,29)                1.4049         estimate D2E/DX2                !
 ! R32   R(26,33)                1.102          estimate D2E/DX2                !
 ! R33   R(27,28)                1.4038         estimate D2E/DX2                !
 ! R34   R(27,34)                1.1024         estimate D2E/DX2                !
 ! R35   R(28,29)                1.4081         estimate D2E/DX2                !
 ! R36   R(28,31)                1.1021         estimate D2E/DX2                !
 ! R37   R(29,30)                1.1019         estimate D2E/DX2                !
 ! R38   R(35,36)                1.1018         estimate D2E/DX2                !
 ! R39   R(35,37)                1.1039         estimate D2E/DX2                !
 ! R40   R(38,39)                1.3883         estimate D2E/DX2                !
 ! R41   R(38,44)                1.4458         estimate D2E/DX2                !
 ! R42   R(38,53)                1.3899         estimate D2E/DX2                !
 ! R43   R(39,41)                1.3877         estimate D2E/DX2                !
 ! R44   R(39,70)                1.9809         estimate D2E/DX2                !
 ! R45   R(40,44)                1.0971         estimate D2E/DX2                !
 ! R46   R(41,42)                1.4452         estimate D2E/DX2                !
 ! R47   R(41,45)                1.39           estimate D2E/DX2                !
 ! R48   R(42,43)                1.0971         estimate D2E/DX2                !
 ! R49   R(42,44)                1.3709         estimate D2E/DX2                !
 ! R50   R(45,52)                1.392          estimate D2E/DX2                !
 ! R51   R(45,74)                1.0992         estimate D2E/DX2                !
 ! R52   R(46,47)                1.3866         estimate D2E/DX2                !
 ! R53   R(46,52)                1.3859         estimate D2E/DX2                !
 ! R54   R(46,70)                1.9987         estimate D2E/DX2                !
 ! R55   R(47,48)                1.4467         estimate D2E/DX2                !
 ! R56   R(47,61)                1.3926         estimate D2E/DX2                !
 ! R57   R(48,49)                1.0973         estimate D2E/DX2                !
 ! R58   R(48,50)                1.3722         estimate D2E/DX2                !
 ! R59   R(50,51)                1.0972         estimate D2E/DX2                !
 ! R60   R(50,52)                1.446          estimate D2E/DX2                !
 ! R61   R(53,59)                1.391          estimate D2E/DX2                !
 ! R62   R(53,71)                1.0992         estimate D2E/DX2                !
 ! R63   R(54,55)                1.0973         estimate D2E/DX2                !
 ! R64   R(55,56)                1.4463         estimate D2E/DX2                !
 ! R65   R(55,60)                1.3718         estimate D2E/DX2                !
 ! R66   R(56,58)                1.388          estimate D2E/DX2                !
 ! R67   R(56,69)                1.3922         estimate D2E/DX2                !
 ! R68   R(57,60)                1.0971         estimate D2E/DX2                !
 ! R69   R(58,59)                1.3857         estimate D2E/DX2                !
 ! R70   R(58,70)                1.9846         estimate D2E/DX2                !
 ! R71   R(59,60)                1.4455         estimate D2E/DX2                !
 ! R72   R(61,66)                1.3925         estimate D2E/DX2                !
 ! R73   R(61,73)                1.0997         estimate D2E/DX2                !
 ! R74   R(62,63)                1.0974         estimate D2E/DX2                !
 ! R75   R(63,64)                1.3719         estimate D2E/DX2                !
 ! R76   R(63,68)                1.4479         estimate D2E/DX2                !
 ! R77   R(64,65)                1.0974         estimate D2E/DX2                !
 ! R78   R(64,66)                1.4482         estimate D2E/DX2                !
 ! R79   R(66,67)                1.3844         estimate D2E/DX2                !
 ! R80   R(67,68)                1.3836         estimate D2E/DX2                !
 ! R81   R(67,70)                2.0075         estimate D2E/DX2                !
 ! R82   R(68,69)                1.393          estimate D2E/DX2                !
 ! R83   R(69,72)                1.0997         estimate D2E/DX2                !
 ! A1    A(2,1,6)              120.348          estimate D2E/DX2                !
 ! A2    A(2,1,7)              119.5675         estimate D2E/DX2                !
 ! A3    A(6,1,7)              120.084          estimate D2E/DX2                !
 ! A4    A(1,2,3)              121.0307         estimate D2E/DX2                !
 ! A5    A(1,2,8)              119.0845         estimate D2E/DX2                !
 ! A6    A(3,2,8)              119.8592         estimate D2E/DX2                !
 ! A7    A(2,3,4)              117.8205         estimate D2E/DX2                !
 ! A8    A(2,3,12)             121.7811         estimate D2E/DX2                !
 ! A9    A(4,3,12)             120.3971         estimate D2E/DX2                !
 ! A10   A(3,4,5)              121.1546         estimate D2E/DX2                !
 ! A11   A(3,4,9)              118.8522         estimate D2E/DX2                !
 ! A12   A(5,4,9)              119.9804         estimate D2E/DX2                !
 ! A13   A(4,5,6)              120.2617         estimate D2E/DX2                !
 ! A14   A(4,5,10)             119.6729         estimate D2E/DX2                !
 ! A15   A(6,5,10)             120.0614         estimate D2E/DX2                !
 ! A16   A(1,6,5)              119.3798         estimate D2E/DX2                !
 ! A17   A(1,6,11)             120.2967         estimate D2E/DX2                !
 ! A18   A(5,6,11)             120.3226         estimate D2E/DX2                !
 ! A19   A(3,12,13)            116.4966         estimate D2E/DX2                !
 ! A20   A(3,12,35)            121.9133         estimate D2E/DX2                !
 ! A21   A(13,12,35)           121.5449         estimate D2E/DX2                !
 ! A22   A(12,13,14)           109.8178         estimate D2E/DX2                !
 ! A23   A(12,13,15)           109.4845         estimate D2E/DX2                !
 ! A24   A(12,13,16)           116.4526         estimate D2E/DX2                !
 ! A25   A(14,13,15)           105.5857         estimate D2E/DX2                !
 ! A26   A(14,13,16)           107.5682         estimate D2E/DX2                !
 ! A27   A(15,13,16)           107.3629         estimate D2E/DX2                !
 ! A28   A(13,16,17)           121.1828         estimate D2E/DX2                !
 ! A29   A(13,16,21)           119.6145         estimate D2E/DX2                !
 ! A30   A(17,16,21)           119.05           estimate D2E/DX2                !
 ! A31   A(16,17,18)            98.5666         estimate D2E/DX2                !
 ! A32   A(16,17,19)           106.1491         estimate D2E/DX2                !
 ! A33   A(16,17,20)           105.5085         estimate D2E/DX2                !
 ! A34   A(18,17,19)           111.6072         estimate D2E/DX2                !
 ! A35   A(18,17,20)           112.9386         estimate D2E/DX2                !
 ! A36   A(19,17,20)           119.408          estimate D2E/DX2                !
 ! A37   A(17,18,70)           122.3053         estimate D2E/DX2                !
 ! A38   A(16,21,22)           112.5777         estimate D2E/DX2                !
 ! A39   A(16,21,23)           107.3165         estimate D2E/DX2                !
 ! A40   A(16,21,24)           109.5124         estimate D2E/DX2                !
 ! A41   A(22,21,23)           109.7932         estimate D2E/DX2                !
 ! A42   A(22,21,24)           110.1866         estimate D2E/DX2                !
 ! A43   A(23,21,24)           107.2777         estimate D2E/DX2                !
 ! A44   A(21,22,25)           120.9916         estimate D2E/DX2                !
 ! A45   A(21,22,27)           120.0007         estimate D2E/DX2                !
 ! A46   A(25,22,27)           119.0053         estimate D2E/DX2                !
 ! A47   A(22,25,26)           120.6516         estimate D2E/DX2                !
 ! A48   A(22,25,32)           119.4501         estimate D2E/DX2                !
 ! A49   A(26,25,32)           119.8983         estimate D2E/DX2                !
 ! A50   A(25,26,29)           119.9899         estimate D2E/DX2                !
 ! A51   A(25,26,33)           119.8504         estimate D2E/DX2                !
 ! A52   A(29,26,33)           120.1591         estimate D2E/DX2                !
 ! A53   A(22,27,28)           120.3621         estimate D2E/DX2                !
 ! A54   A(22,27,34)           118.6971         estimate D2E/DX2                !
 ! A55   A(28,27,34)           120.9404         estimate D2E/DX2                !
 ! A56   A(27,28,29)           120.3003         estimate D2E/DX2                !
 ! A57   A(27,28,31)           119.7271         estimate D2E/DX2                !
 ! A58   A(29,28,31)           119.9723         estimate D2E/DX2                !
 ! A59   A(26,29,28)           119.6899         estimate D2E/DX2                !
 ! A60   A(26,29,30)           120.1427         estimate D2E/DX2                !
 ! A61   A(28,29,30)           120.1674         estimate D2E/DX2                !
 ! A62   A(12,35,36)           120.9496         estimate D2E/DX2                !
 ! A63   A(12,35,37)           120.8188         estimate D2E/DX2                !
 ! A64   A(36,35,37)           118.2315         estimate D2E/DX2                !
 ! A65   A(39,38,44)           110.9351         estimate D2E/DX2                !
 ! A66   A(39,38,53)           125.3067         estimate D2E/DX2                !
 ! A67   A(44,38,53)           123.7387         estimate D2E/DX2                !
 ! A68   A(38,39,41)           104.776          estimate D2E/DX2                !
 ! A69   A(38,39,70)           127.899          estimate D2E/DX2                !
 ! A70   A(41,39,70)           127.0693         estimate D2E/DX2                !
 ! A71   A(39,41,42)           110.9884         estimate D2E/DX2                !
 ! A72   A(39,41,45)           125.2357         estimate D2E/DX2                !
 ! A73   A(42,41,45)           123.6527         estimate D2E/DX2                !
 ! A74   A(41,42,43)           124.4082         estimate D2E/DX2                !
 ! A75   A(41,42,44)           106.6371         estimate D2E/DX2                !
 ! A76   A(43,42,44)           128.9451         estimate D2E/DX2                !
 ! A77   A(38,44,40)           124.3982         estimate D2E/DX2                !
 ! A78   A(38,44,42)           106.643          estimate D2E/DX2                !
 ! A79   A(40,44,42)           128.9547         estimate D2E/DX2                !
 ! A80   A(41,45,52)           123.6165         estimate D2E/DX2                !
 ! A81   A(41,45,74)           118.1131         estimate D2E/DX2                !
 ! A82   A(52,45,74)           118.174          estimate D2E/DX2                !
 ! A83   A(47,46,52)           104.9649         estimate D2E/DX2                !
 ! A84   A(47,46,70)           127.7822         estimate D2E/DX2                !
 ! A85   A(52,46,70)           126.4754         estimate D2E/DX2                !
 ! A86   A(46,47,48)           110.8444         estimate D2E/DX2                !
 ! A87   A(46,47,61)           125.5636         estimate D2E/DX2                !
 ! A88   A(48,47,61)           123.5446         estimate D2E/DX2                !
 ! A89   A(47,48,49)           124.4697         estimate D2E/DX2                !
 ! A90   A(47,48,50)           106.6297         estimate D2E/DX2                !
 ! A91   A(49,48,50)           128.8957         estimate D2E/DX2                !
 ! A92   A(48,50,51)           128.9076         estimate D2E/DX2                !
 ! A93   A(48,50,52)           106.5829         estimate D2E/DX2                !
 ! A94   A(51,50,52)           124.5017         estimate D2E/DX2                !
 ! A95   A(45,52,46)           125.1484         estimate D2E/DX2                !
 ! A96   A(45,52,50)           123.804          estimate D2E/DX2                !
 ! A97   A(46,52,50)           110.9414         estimate D2E/DX2                !
 ! A98   A(38,53,59)           123.6549         estimate D2E/DX2                !
 ! A99   A(38,53,71)           118.1082         estimate D2E/DX2                !
 ! A100  A(59,53,71)           118.1249         estimate D2E/DX2                !
 ! A101  A(54,55,56)           124.4732         estimate D2E/DX2                !
 ! A102  A(54,55,60)           128.8843         estimate D2E/DX2                !
 ! A103  A(56,55,60)           106.6331         estimate D2E/DX2                !
 ! A104  A(55,56,58)           110.8247         estimate D2E/DX2                !
 ! A105  A(55,56,69)           123.6485         estimate D2E/DX2                !
 ! A106  A(58,56,69)           125.4213         estimate D2E/DX2                !
 ! A107  A(56,58,59)           104.9428         estimate D2E/DX2                !
 ! A108  A(56,58,70)           126.4654         estimate D2E/DX2                !
 ! A109  A(59,58,70)           127.799          estimate D2E/DX2                !
 ! A110  A(53,59,58)           125.3235         estimate D2E/DX2                !
 ! A111  A(53,59,60)           123.7023         estimate D2E/DX2                !
 ! A112  A(58,59,60)           110.928          estimate D2E/DX2                !
 ! A113  A(55,60,57)           128.9214         estimate D2E/DX2                !
 ! A114  A(55,60,59)           106.626          estimate D2E/DX2                !
 ! A115  A(57,60,59)           124.4437         estimate D2E/DX2                !
 ! A116  A(47,61,66)           123.9401         estimate D2E/DX2                !
 ! A117  A(47,61,73)           117.9305         estimate D2E/DX2                !
 ! A118  A(66,61,73)           118.047          estimate D2E/DX2                !
 ! A119  A(62,63,64)           128.8749         estimate D2E/DX2                !
 ! A120  A(62,63,68)           124.606          estimate D2E/DX2                !
 ! A121  A(64,63,68)           106.5053         estimate D2E/DX2                !
 ! A122  A(63,64,65)           128.8984         estimate D2E/DX2                !
 ! A123  A(63,64,66)           106.5296         estimate D2E/DX2                !
 ! A124  A(65,64,66)           124.569          estimate D2E/DX2                !
 ! A125  A(61,66,64)           123.8206         estimate D2E/DX2                !
 ! A126  A(61,66,67)           125.1805         estimate D2E/DX2                !
 ! A127  A(64,66,67)           110.9477         estimate D2E/DX2                !
 ! A128  A(66,67,68)           104.9735         estimate D2E/DX2                !
 ! A129  A(66,67,70)           127.9954         estimate D2E/DX2                !
 ! A130  A(68,67,70)           126.4618         estimate D2E/DX2                !
 ! A131  A(63,68,67)           111.0135         estimate D2E/DX2                !
 ! A132  A(63,68,69)           123.9218         estimate D2E/DX2                !
 ! A133  A(67,68,69)           124.958          estimate D2E/DX2                !
 ! A134  A(56,69,68)           123.7446         estimate D2E/DX2                !
 ! A135  A(56,69,72)           117.9831         estimate D2E/DX2                !
 ! A136  A(68,69,72)           118.1319         estimate D2E/DX2                !
 ! A137  A(18,70,39)           100.054          estimate D2E/DX2                !
 ! A138  A(18,70,46)            96.3636         estimate D2E/DX2                !
 ! A139  A(18,70,58)            96.9695         estimate D2E/DX2                !
 ! A140  A(18,70,67)            91.6122         estimate D2E/DX2                !
 ! A141  A(39,70,46)            89.1443         estimate D2E/DX2                !
 ! A142  A(39,70,58)            89.793          estimate D2E/DX2                !
 ! A143  A(46,70,67)            89.2595         estimate D2E/DX2                !
 ! A144  A(58,70,67)            89.0869         estimate D2E/DX2                !
 ! A145  L(39,70,67,18,-1)     191.6662         estimate D2E/DX2                !
 ! A146  L(46,70,58,18,-1)     193.3331         estimate D2E/DX2                !
 ! A147  L(39,70,67,18,-2)     179.693          estimate D2E/DX2                !
 ! A148  L(46,70,58,18,-2)     178.7114         estimate D2E/DX2                !
 ! D1    D(6,1,2,3)             -0.491          estimate D2E/DX2                !
 ! D2    D(6,1,2,8)           -178.6472         estimate D2E/DX2                !
 ! D3    D(7,1,2,3)            179.2604         estimate D2E/DX2                !
 ! D4    D(7,1,2,8)              1.1043         estimate D2E/DX2                !
 ! D5    D(2,1,6,5)              0.0584         estimate D2E/DX2                !
 ! D6    D(2,1,6,11)          -179.6072         estimate D2E/DX2                !
 ! D7    D(7,1,6,5)           -179.6917         estimate D2E/DX2                !
 ! D8    D(7,1,6,11)             0.6427         estimate D2E/DX2                !
 ! D9    D(1,2,3,4)              0.8191         estimate D2E/DX2                !
 ! D10   D(1,2,3,12)          -178.7762         estimate D2E/DX2                !
 ! D11   D(8,2,3,4)            178.9611         estimate D2E/DX2                !
 ! D12   D(8,2,3,12)            -0.6342         estimate D2E/DX2                !
 ! D13   D(2,3,4,5)             -0.7423         estimate D2E/DX2                !
 ! D14   D(2,3,4,9)            177.9506         estimate D2E/DX2                !
 ! D15   D(12,3,4,5)           178.8589         estimate D2E/DX2                !
 ! D16   D(12,3,4,9)            -2.4483         estimate D2E/DX2                !
 ! D17   D(2,3,12,13)          -44.1677         estimate D2E/DX2                !
 ! D18   D(2,3,12,35)          138.2422         estimate D2E/DX2                !
 ! D19   D(4,3,12,13)          136.2473         estimate D2E/DX2                !
 ! D20   D(4,3,12,35)          -41.3428         estimate D2E/DX2                !
 ! D21   D(3,4,5,6)              0.3352         estimate D2E/DX2                !
 ! D22   D(3,4,5,10)           179.6109         estimate D2E/DX2                !
 ! D23   D(9,4,5,6)           -178.343          estimate D2E/DX2                !
 ! D24   D(9,4,5,10)             0.9326         estimate D2E/DX2                !
 ! D25   D(4,5,6,1)              0.0188         estimate D2E/DX2                !
 ! D26   D(4,5,6,11)           179.6843         estimate D2E/DX2                !
 ! D27   D(10,5,6,1)          -179.254          estimate D2E/DX2                !
 ! D28   D(10,5,6,11)            0.4114         estimate D2E/DX2                !
 ! D29   D(3,12,13,14)          34.9605         estimate D2E/DX2                !
 ! D30   D(3,12,13,15)         -80.5355         estimate D2E/DX2                !
 ! D31   D(3,12,13,16)         157.4854         estimate D2E/DX2                !
 ! D32   D(35,12,13,14)       -147.4399         estimate D2E/DX2                !
 ! D33   D(35,12,13,15)         97.0641         estimate D2E/DX2                !
 ! D34   D(35,12,13,16)        -24.9149         estimate D2E/DX2                !
 ! D35   D(3,12,35,36)          -2.8813         estimate D2E/DX2                !
 ! D36   D(3,12,35,37)         176.9911         estimate D2E/DX2                !
 ! D37   D(13,12,35,36)        179.6496         estimate D2E/DX2                !
 ! D38   D(13,12,35,37)         -0.4781         estimate D2E/DX2                !
 ! D39   D(12,13,16,17)        106.9873         estimate D2E/DX2                !
 ! D40   D(12,13,16,21)        -68.4771         estimate D2E/DX2                !
 ! D41   D(14,13,16,17)       -129.3204         estimate D2E/DX2                !
 ! D42   D(14,13,16,21)         55.2152         estimate D2E/DX2                !
 ! D43   D(15,13,16,17)        -16.0997         estimate D2E/DX2                !
 ! D44   D(15,13,16,21)        168.4359         estimate D2E/DX2                !
 ! D45   D(13,16,17,18)        -99.4128         estimate D2E/DX2                !
 ! D46   D(13,16,17,19)        145.0363         estimate D2E/DX2                !
 ! D47   D(13,16,17,20)         17.3844         estimate D2E/DX2                !
 ! D48   D(21,16,17,18)         76.0767         estimate D2E/DX2                !
 ! D49   D(21,16,17,19)        -39.4742         estimate D2E/DX2                !
 ! D50   D(21,16,17,20)       -167.1261         estimate D2E/DX2                !
 ! D51   D(13,16,21,22)        -69.0412         estimate D2E/DX2                !
 ! D52   D(13,16,21,23)        170.0426         estimate D2E/DX2                !
 ! D53   D(13,16,21,24)         53.904          estimate D2E/DX2                !
 ! D54   D(17,16,21,22)        115.3973         estimate D2E/DX2                !
 ! D55   D(17,16,21,23)         -5.5189         estimate D2E/DX2                !
 ! D56   D(17,16,21,24)       -121.6575         estimate D2E/DX2                !
 ! D57   D(16,17,18,70)       -173.2817         estimate D2E/DX2                !
 ! D58   D(19,17,18,70)        -62.0464         estimate D2E/DX2                !
 ! D59   D(20,17,18,70)         75.7796         estimate D2E/DX2                !
 ! D60   D(17,18,70,39)        -15.4317         estimate D2E/DX2                !
 ! D61   D(17,18,70,46)       -105.6902         estimate D2E/DX2                !
 ! D62   D(17,18,70,58)         75.5984         estimate D2E/DX2                !
 ! D63   D(17,18,70,67)        164.8754         estimate D2E/DX2                !
 ! D64   D(16,21,22,25)        124.5927         estimate D2E/DX2                !
 ! D65   D(16,21,22,27)        -55.9608         estimate D2E/DX2                !
 ! D66   D(23,21,22,25)       -115.9195         estimate D2E/DX2                !
 ! D67   D(23,21,22,27)         63.527          estimate D2E/DX2                !
 ! D68   D(24,21,22,25)          2.0258         estimate D2E/DX2                !
 ! D69   D(24,21,22,27)       -178.5278         estimate D2E/DX2                !
 ! D70   D(21,22,25,26)        179.0889         estimate D2E/DX2                !
 ! D71   D(21,22,25,32)         -0.7919         estimate D2E/DX2                !
 ! D72   D(27,22,25,26)         -0.363          estimate D2E/DX2                !
 ! D73   D(27,22,25,32)        179.7563         estimate D2E/DX2                !
 ! D74   D(21,22,27,28)       -179.2502         estimate D2E/DX2                !
 ! D75   D(21,22,27,34)          0.5075         estimate D2E/DX2                !
 ! D76   D(25,22,27,28)          0.2072         estimate D2E/DX2                !
 ! D77   D(25,22,27,34)        179.9649         estimate D2E/DX2                !
 ! D78   D(22,25,26,29)          0.3009         estimate D2E/DX2                !
 ! D79   D(22,25,26,33)       -179.9746         estimate D2E/DX2                !
 ! D80   D(32,25,26,29)       -179.8189         estimate D2E/DX2                !
 ! D81   D(32,25,26,33)         -0.0944         estimate D2E/DX2                !
 ! D82   D(25,26,29,28)         -0.0784         estimate D2E/DX2                !
 ! D83   D(25,26,29,30)        179.8181         estimate D2E/DX2                !
 ! D84   D(33,26,29,28)       -179.8021         estimate D2E/DX2                !
 ! D85   D(33,26,29,30)          0.0944         estimate D2E/DX2                !
 ! D86   D(22,27,28,29)          0.0102         estimate D2E/DX2                !
 ! D87   D(22,27,28,31)        179.8129         estimate D2E/DX2                !
 ! D88   D(34,27,28,29)       -179.7419         estimate D2E/DX2                !
 ! D89   D(34,27,28,31)          0.0608         estimate D2E/DX2                !
 ! D90   D(27,28,29,26)         -0.0758         estimate D2E/DX2                !
 ! D91   D(27,28,29,30)       -179.9723         estimate D2E/DX2                !
 ! D92   D(31,28,29,26)       -179.878          estimate D2E/DX2                !
 ! D93   D(31,28,29,30)          0.2254         estimate D2E/DX2                !
 ! D94   D(44,38,39,41)         -0.8623         estimate D2E/DX2                !
 ! D95   D(44,38,39,70)       -175.3291         estimate D2E/DX2                !
 ! D96   D(53,38,39,41)        177.5778         estimate D2E/DX2                !
 ! D97   D(53,38,39,70)          3.111          estimate D2E/DX2                !
 ! D98   D(39,38,44,40)       -179.2387         estimate D2E/DX2                !
 ! D99   D(39,38,44,42)          1.443          estimate D2E/DX2                !
 ! D100  D(53,38,44,40)          2.2922         estimate D2E/DX2                !
 ! D101  D(53,38,44,42)       -177.0261         estimate D2E/DX2                !
 ! D102  D(39,38,53,59)         -3.2659         estimate D2E/DX2                !
 ! D103  D(39,38,53,71)       -179.3384         estimate D2E/DX2                !
 ! D104  D(44,38,53,59)        174.982          estimate D2E/DX2                !
 ! D105  D(44,38,53,71)         -1.0905         estimate D2E/DX2                !
 ! D106  D(38,39,41,42)         -0.0073         estimate D2E/DX2                !
 ! D107  D(38,39,41,45)        176.0685         estimate D2E/DX2                !
 ! D108  D(70,39,41,42)        174.5208         estimate D2E/DX2                !
 ! D109  D(70,39,41,45)         -9.4035         estimate D2E/DX2                !
 ! D110  D(38,39,70,18)         94.2009         estimate D2E/DX2                !
 ! D111  D(38,39,70,46)       -169.4878         estimate D2E/DX2                !
 ! D112  D(38,39,70,58)         -2.8409         estimate D2E/DX2                !
 ! D113  D(41,39,70,18)        -79.0888         estimate D2E/DX2                !
 ! D114  D(41,39,70,46)         17.2224         estimate D2E/DX2                !
 ! D115  D(41,39,70,58)       -176.1307         estimate D2E/DX2                !
 ! D116  D(39,41,42,43)        179.8579         estimate D2E/DX2                !
 ! D117  D(39,41,42,44)          0.8986         estimate D2E/DX2                !
 ! D118  D(45,41,42,43)          3.7084         estimate D2E/DX2                !
 ! D119  D(45,41,42,44)       -175.2509         estimate D2E/DX2                !
 ! D120  D(39,41,45,52)         -4.8325         estimate D2E/DX2                !
 ! D121  D(39,41,45,74)        178.8099         estimate D2E/DX2                !
 ! D122  D(42,41,45,52)        170.7651         estimate D2E/DX2                !
 ! D123  D(42,41,45,74)         -5.5925         estimate D2E/DX2                !
 ! D124  D(41,42,44,38)         -1.3599         estimate D2E/DX2                !
 ! D125  D(41,42,44,40)        179.3634         estimate D2E/DX2                !
 ! D126  D(43,42,44,38)        179.744          estimate D2E/DX2                !
 ! D127  D(43,42,44,40)          0.4674         estimate D2E/DX2                !
 ! D128  D(41,45,52,46)          3.2982         estimate D2E/DX2                !
 ! D129  D(41,45,52,50)       -172.6102         estimate D2E/DX2                !
 ! D130  D(74,45,52,46)        179.6537         estimate D2E/DX2                !
 ! D131  D(74,45,52,50)          3.7453         estimate D2E/DX2                !
 ! D132  D(52,46,47,48)          1.8149         estimate D2E/DX2                !
 ! D133  D(52,46,47,61)       -175.7434         estimate D2E/DX2                !
 ! D134  D(70,46,47,48)        172.1412         estimate D2E/DX2                !
 ! D135  D(70,46,47,61)         -5.4171         estimate D2E/DX2                !
 ! D136  D(47,46,52,45)       -177.3599         estimate D2E/DX2                !
 ! D137  D(47,46,52,50)         -0.9997         estimate D2E/DX2                !
 ! D138  D(70,46,52,45)         12.1466         estimate D2E/DX2                !
 ! D139  D(70,46,52,50)       -171.4931         estimate D2E/DX2                !
 ! D140  D(47,46,70,18)        -86.8114         estimate D2E/DX2                !
 ! D141  D(47,46,70,39)        173.1674         estimate D2E/DX2                !
 ! D142  D(47,46,70,67)          4.7283         estimate D2E/DX2                !
 ! D143  D(52,46,70,18)         81.5414         estimate D2E/DX2                !
 ! D144  D(52,46,70,39)        -18.4798         estimate D2E/DX2                !
 ! D145  D(52,46,70,67)        173.0811         estimate D2E/DX2                !
 ! D146  D(46,47,48,49)        178.7585         estimate D2E/DX2                !
 ! D147  D(46,47,48,50)         -1.9924         estimate D2E/DX2                !
 ! D148  D(61,47,48,49)         -3.6246         estimate D2E/DX2                !
 ! D149  D(61,47,48,50)        175.6245         estimate D2E/DX2                !
 ! D150  D(46,47,61,66)          3.7324         estimate D2E/DX2                !
 ! D151  D(46,47,61,73)       -179.6406         estimate D2E/DX2                !
 ! D152  D(48,47,61,66)       -173.5296         estimate D2E/DX2                !
 ! D153  D(48,47,61,73)          3.0975         estimate D2E/DX2                !
 ! D154  D(47,48,50,51)       -179.7138         estimate D2E/DX2                !
 ! D155  D(47,48,50,52)          1.2759         estimate D2E/DX2                !
 ! D156  D(49,48,50,51)         -0.5093         estimate D2E/DX2                !
 ! D157  D(49,48,50,52)       -179.5195         estimate D2E/DX2                !
 ! D158  D(48,50,52,45)        176.2148         estimate D2E/DX2                !
 ! D159  D(48,50,52,46)         -0.2037         estimate D2E/DX2                !
 ! D160  D(51,50,52,45)         -2.8507         estimate D2E/DX2                !
 ! D161  D(51,50,52,46)       -179.2692         estimate D2E/DX2                !
 ! D162  D(38,53,59,58)          4.429          estimate D2E/DX2                !
 ! D163  D(38,53,59,60)       -172.8728         estimate D2E/DX2                !
 ! D164  D(71,53,59,58)       -179.4991         estimate D2E/DX2                !
 ! D165  D(71,53,59,60)          3.199          estimate D2E/DX2                !
 ! D166  D(54,55,56,58)       -179.1978         estimate D2E/DX2                !
 ! D167  D(54,55,56,69)         -2.7548         estimate D2E/DX2                !
 ! D168  D(60,55,56,58)         -0.2264         estimate D2E/DX2                !
 ! D169  D(60,55,56,69)        176.2166         estimate D2E/DX2                !
 ! D170  D(54,55,60,57)         -0.736          estimate D2E/DX2                !
 ! D171  D(54,55,60,59)       -179.6743         estimate D2E/DX2                !
 ! D172  D(56,55,60,57)       -179.6466         estimate D2E/DX2                !
 ! D173  D(56,55,60,59)          1.4151         estimate D2E/DX2                !
 ! D174  D(55,56,58,59)         -1.1075         estimate D2E/DX2                !
 ! D175  D(55,56,58,70)       -171.5104         estimate D2E/DX2                !
 ! D176  D(69,56,58,59)       -177.4738         estimate D2E/DX2                !
 ! D177  D(69,56,58,70)         12.1232         estimate D2E/DX2                !
 ! D178  D(55,56,69,68)       -171.6544         estimate D2E/DX2                !
 ! D179  D(55,56,69,72)          3.9507         estimate D2E/DX2                !
 ! D180  D(58,56,69,68)          4.265          estimate D2E/DX2                !
 ! D181  D(58,56,69,72)        179.8702         estimate D2E/DX2                !
 ! D182  D(56,58,59,53)       -175.583          estimate D2E/DX2                !
 ! D183  D(56,58,59,60)          2.0139         estimate D2E/DX2                !
 ! D184  D(70,58,59,53)         -5.3524         estimate D2E/DX2                !
 ! D185  D(70,58,59,60)        172.2446         estimate D2E/DX2                !
 ! D186  D(56,58,70,18)         72.0225         estimate D2E/DX2                !
 ! D187  D(56,58,70,39)        172.1265         estimate D2E/DX2                !
 ! D188  D(56,58,70,67)        -19.4902         estimate D2E/DX2                !
 ! D189  D(59,58,70,18)        -96.215          estimate D2E/DX2                !
 ! D190  D(59,58,70,39)          3.8891         estimate D2E/DX2                !
 ! D191  D(59,58,70,67)        172.2723         estimate D2E/DX2                !
 ! D192  D(53,59,60,55)        175.4318         estimate D2E/DX2                !
 ! D193  D(53,59,60,57)         -3.5666         estimate D2E/DX2                !
 ! D194  D(58,59,60,55)         -2.2115         estimate D2E/DX2                !
 ! D195  D(58,59,60,57)        178.7901         estimate D2E/DX2                !
 ! D196  D(47,61,66,64)        174.0548         estimate D2E/DX2                !
 ! D197  D(47,61,66,67)         -3.1051         estimate D2E/DX2                !
 ! D198  D(73,61,66,64)         -2.5686         estimate D2E/DX2                !
 ! D199  D(73,61,66,67)       -179.7285         estimate D2E/DX2                !
 ! D200  D(62,63,64,65)          0.624          estimate D2E/DX2                !
 ! D201  D(62,63,64,66)       -179.9897         estimate D2E/DX2                !
 ! D202  D(68,63,64,65)        179.3039         estimate D2E/DX2                !
 ! D203  D(68,63,64,66)         -1.3098         estimate D2E/DX2                !
 ! D204  D(62,63,68,67)        179.1653         estimate D2E/DX2                !
 ! D205  D(62,63,68,69)          2.7608         estimate D2E/DX2                !
 ! D206  D(64,63,68,67)          0.4139         estimate D2E/DX2                !
 ! D207  D(64,63,68,69)       -175.9906         estimate D2E/DX2                !
 ! D208  D(63,64,66,61)       -175.6679         estimate D2E/DX2                !
 ! D209  D(63,64,66,67)          1.8468         estimate D2E/DX2                !
 ! D210  D(65,64,66,61)          3.7521         estimate D2E/DX2                !
 ! D211  D(65,64,66,67)       -178.7332         estimate D2E/DX2                !
 ! D212  D(61,66,67,68)        175.9259         estimate D2E/DX2                !
 ! D213  D(61,66,67,70)          4.2202         estimate D2E/DX2                !
 ! D214  D(64,66,67,68)         -1.5479         estimate D2E/DX2                !
 ! D215  D(64,66,67,70)       -173.2536         estimate D2E/DX2                !
 ! D216  D(66,67,68,63)          0.7082         estimate D2E/DX2                !
 ! D217  D(66,67,68,69)        177.0678         estimate D2E/DX2                !
 ! D218  D(70,67,68,63)        172.5821         estimate D2E/DX2                !
 ! D219  D(70,67,68,69)        -11.0584         estimate D2E/DX2                !
 ! D220  D(66,67,70,18)         92.1545         estimate D2E/DX2                !
 ! D221  D(66,67,70,46)         -4.1912         estimate D2E/DX2                !
 ! D222  D(66,67,70,58)       -170.8983         estimate D2E/DX2                !
 ! D223  D(68,67,70,18)        -77.8671         estimate D2E/DX2                !
 ! D224  D(68,67,70,46)       -174.2127         estimate D2E/DX2                !
 ! D225  D(68,67,70,58)         19.0802         estimate D2E/DX2                !
 ! D226  D(63,68,69,56)        171.1832         estimate D2E/DX2                !
 ! D227  D(63,68,69,72)         -4.4158         estimate D2E/DX2                !
 ! D228  D(67,68,69,56)         -4.7207         estimate D2E/DX2                !
 ! D229  D(67,68,69,72)        179.6803         estimate D2E/DX2                !
 --------------------------------------------------------------------------------
 Trust Radius=3.00D-01 FncErr=1.00D-07 GrdErr=1.00D-06 EigMax=2.50D+02 EigMin=1.00D-04
 Number of steps in this run=    444 maximum allowed number of steps=    444.
 GradGradGradGradGradGradGradGradGradGradGradGradGradGradGradGradGradGrad

 Stoichiometry    C36H28CoN6O2S(2)
 Framework group  C1[X(C36H28CoN6O2S)]
 Deg. of freedom   216
 Full point group                 C1      NOp   1
 Largest Abelian subgroup         C1      NOp   1
 Largest concise Abelian subgroup C1      NOp   1
                         Standard orientation:                         
 ---------------------------------------------------------------------
 Center     Atomic      Atomic             Coordinates (Angstroms)
 Number     Number       Type             X           Y           Z
 ---------------------------------------------------------------------
      1          6           0        6.824129    1.908833   -0.338023
      2          6           0        5.578175    1.276984   -0.191902
      3          6           0        4.390868    2.032724   -0.024559
      4          6           0        4.500306    3.445853   -0.027368
      5          6           0        5.744877    4.077412   -0.174966
      6          6           0        6.914251    3.311617   -0.330990
      7          1           0        7.733494    1.297490   -0.454391
      8          1           0        5.534293    0.176240   -0.177837
      9          1           0        3.584221    4.050098    0.067111
     10          1           0        5.800961    5.178020   -0.180138
     11          1           0        7.891095    3.806396   -0.452131
     12          6           0        3.061995    1.378550    0.159018
     13          6           0        2.748553    0.198619   -0.763731
     14          1           0        3.678557   -0.378951   -0.967180
     15          1           0        2.411922    0.579788   -1.751241
     16          7           0        1.741607   -0.741224   -0.294837
     17         16           0        0.187185   -0.788418   -0.990383
     18          7           0       -0.630952    0.106170    0.166049
     19          8           0       -0.230884   -2.219320   -0.974583
     20          8           0        0.311833   -0.078623   -2.290746
     21          6           0        2.030763   -1.595945    0.858807
     22          6           0        3.088177   -2.650474    0.555269
     23          1           0        1.081439   -2.089175    1.150323
     24          1           0        2.352730   -0.965264    1.717249
     25          6           0        4.252919   -2.757749    1.341759
     26          6           0        5.215924   -3.746729    1.066714
     27          6           0        2.903372   -3.546829   -0.521025
     28          6           0        3.865133   -4.531301   -0.797717
     29          6           0        5.023966   -4.635158   -0.004601
     30          1           0        5.777664   -5.408416   -0.224021
     31          1           0        3.708872   -5.227054   -1.637978
     32          1           0        4.406618   -2.059007    2.181512
     33          1           0        6.121559   -3.818970    1.690413
     34          1           0        1.990270   -3.458749   -1.132478
     35          6           0        2.158885    1.833327    1.058447
     36          1           0        2.397044    2.680069    1.722048
     37          1           0        1.162420    1.366302    1.144968
     38          6           0       -3.170645   -1.552523   -2.142927
     39          7           0       -2.805591   -0.284496   -1.711437
     40          1           0       -3.540765   -2.493698   -4.158684
     41          6           0       -2.644714    0.452935   -2.875929
     42          6           0       -2.910222   -0.357496   -4.042694
     43          1           0       -2.850099    0.005329   -5.076266
     44          6           0       -3.257828   -1.602219   -3.585197
     45          6           0       -2.353355    1.810936   -2.931381
     46          7           0       -2.420011    2.201209   -0.497693
     47          6           0       -2.335942    3.354695    0.267283
     48          6           0       -2.184187    4.521037   -0.574994
     49          1           0       -2.115973    5.551134   -0.202981
     50          6           0       -2.130310    4.066843   -1.868713
     51          1           0       -2.015549    4.641235   -2.796530
     52          6           0       -2.280230    2.629915   -1.808209
     53          6           0       -3.392961   -2.648767   -1.317878
     54          1           0       -2.902298   -3.995687    3.088040
     55          6           0       -2.960306   -3.397943    2.169647
     56          6           0       -2.703375   -1.976372    2.100567
     57          1           0       -3.567504   -4.799482    0.543671
     58          7           0       -2.874676   -1.506299    0.805836
     59          6           0       -3.211087   -2.625288    0.061031
     60          6           0       -3.297447   -3.798130    0.901525
     61          6           0       -2.339771    3.405707    1.658979
     62          1           0       -2.106789    0.648611    5.380176
     63          6           0       -2.193779    1.029923    4.354864
     64          6           0       -2.234478    2.330649    3.920472
     65          1           0       -2.179119    3.255551    4.508436
     66          6           0       -2.355113    2.279800    2.478192
     67          7           0       -2.429819    0.970897    2.033621
     68          6           0       -2.321571    0.198488    3.176401
     69          6           0       -2.404722   -1.191567    3.211048
     70         27           0       -2.419044    0.306661    0.139230
     71          1           0       -3.667572   -3.603642   -1.788141
     72          1           0       -2.297276   -1.693350    4.183677
     73          1           0       -2.272943    4.393130    2.138413
     74          1           0       -2.231030    2.274484   -3.920565
 ---------------------------------------------------------------------
 Rotational constants (GHZ):           0.0855432           0.0564487           0.0474212
 General basis read from cards:  (5D, 7F)
 There are   983 symmetry adapted cartesian basis functions of A   symmetry.
 There are   933 symmetry adapted basis functions of A   symmetry.
   933 basis functions,  1675 primitive gaussians,   983 cartesian basis functions
   173 alpha electrons      172 beta electrons
       nuclear repulsion energy      6778.4515222173 Hartrees.
 NAtoms=   74 NActive=   74 NUniq=   74 SFac= 1.00D+00 NAtFMM=   60 NAOKFM=T Big=T
 Integral buffers will be    131072 words long.
 Raffenetti 2 integral format.
 Two-electron integral symmetry is turned on.
 One-electron integrals computed using PRISM.
 NBasis=   933 RedAO= T EigKep=  1.56D-04  NBF=   933
 NBsUse=   933 1.00D-06 EigRej= -1.00D+00 NBFU=   933
 Initial guess from the checkpoint file:  "1_activation_product_gen.chk"
 B after Tr=     0.000000   -0.000000    0.000000
         Rot=    1.000000   -0.000000   -0.000000   -0.000000 Ang=   0.00 deg.
 Initial guess <Sx>= 0.0000 <Sy>= 0.0000 <Sz>= 0.5000 <S**2>= 0.7559 S= 0.5029
 Requested convergence on RMS density matrix=1.00D-08 within 128 cycles.
 Requested convergence on MAX density matrix=1.00D-06.
 Requested convergence on             energy=1.00D-06.
 No special actions if energy rises.
 SCF Done:  E(UB-P86) =  -3649.10482358     A.U. after   20 cycles
            NFock= 20  Conv=0.31D-08     -V/T= 2.0030
 <Sx>= 0.0000 <Sy>= 0.0000 <Sz>= 0.5000 <S**2>= 0.7560 S= 0.5030
 <L.S>= 0.000000000000E+00
 Annihilation of the first spin contaminant:
 S**2 before annihilation     0.7560,   after     0.7500

 **********************************************************************

            Population analysis using the SCF density.

 **********************************************************************

 Orbital symmetries:
 Alpha Orbitals:
       Occupied  (A) (A) (A) (A) (A) (A) (A) (A) (A) (A) (A) (A)
                 (A) (A) (A) (A) (A) (A) (A) (A) (A) (A) (A) (A)
                 (A) (A) (A) (A) (A) (A) (A) (A) (A) (A) (A) (A)
                 (A) (A) (A) (A) (A) (A) (A) (A) (A) (A) (A) (A)
                 (A) (A) (A) (A) (A) (A) (A) (A) (A) (A) (A) (A)
                 (A) (A) (A) (A) (A) (A) (A) (A) (A) (A) (A) (A)
                 (A) (A) (A) (A) (A) (A) (A) (A) (A) (A) (A) (A)
                 (A) (A) (A) (A) (A) (A) (A) (A) (A) (A) (A) (A)
                 (A) (A) (A) (A) (A) (A) (A) (A) (A) (A) (A) (A)
                 (A) (A) (A) (A) (A) (A) (A) (A) (A) (A) (A) (A)
                 (A) (A) (A) (A) (A) (A) (A) (A) (A) (A) (A) (A)
                 (A) (A) (A) (A) (A) (A) (A) (A) (A) (A) (A) (A)
                 (A) (A) (A) (A) (A) (A) (A) (A) (A) (A) (A) (A)
                 (A) (A) (A) (A) (A) (A) (A) (A) (A) (A) (A) (A)
                 (A) (A) (A) (A) (A)
       Virtual   (A) (A) (A) (A) (A) (A) (A) (A) (A) (A) (A) (A)
                 (A) (A) (A) (A) (A) (A) (A) (A) (A) (A) (A) (A)
                 (A) (A) (A) (A) (A) (A) (A) (A) (A) (A) (A) (A)
                 (A) (A) (A) (A) (A) (A) (A) (A) (A) (A) (A) (A)
                 (A) (A) (A) (A) (A) (A) (A) (A) (A) (A) (A) (A)
                 (A) (A) (A) (A) (A) (A) (A) (A) (A) (A) (A) (A)
                 (A) (A) (A) (A) (A) (A) (A) (A) (A) (A) (A) (A)
                 (A) (A) (A) (A) (A) (A) (A) (A) (A) (A) (A) (A)
                 (A) (A) (A) (A) (A) (A) (A) (A) (A) (A) (A) (A)
                 (A) (A) (A) (A) (A) (A) (A) (A) (A) (A) (A) (A)
                 (A) (A) (A) (A) (A) (A) (A) (A) (A) (A) (A) (A)
                 (A) (A) (A) (A) (A) (A) (A) (A) (A) (A) (A) (A)
                 (A) (A) (A) (A) (A) (A) (A) (A) (A) (A) (A) (A)
                 (A) (A) (A) (A) (A) (A) (A) (A) (A) (A) (A) (A)
                 (A) (A) (A) (A) (A) (A) (A) (A) (A) (A) (A) (A)
                 (A) (A) (A) (A) (A) (A) (A) (A) (A) (A) (A) (A)
                 (A) (A) (A) (A) (A) (A) (A) (A) (A) (A) (A) (A)
                 (A) (A) (A) (A) (A) (A) (A) (A) (A) (A) (A) (A)
                 (A) (A) (A) (A) (A) (A) (A) (A) (A) (A) (A) (A)
                 (A) (A) (A) (A) (A) (A) (A) (A) (A) (A) (A) (A)
                 (A) (A) (A) (A) (A) (A) (A) (A) (A) (A) (A) (A)
                 (A) (A) (A) (A) (A) (A) (A) (A) (A) (A) (A) (A)
                 (A) (A) (A) (A) (A) (A) (A) (A) (A) (A) (A) (A)
                 (A) (A) (A) (A) (A) (A) (A) (A) (A) (A) (A) (A)
                 (A) (A) (A) (A) (A) (A) (A) (A) (A) (A) (A) (A)
                 (A) (A) (A) (A) (A) (A) (A) (A) (A) (A) (A) (A)
                 (A) (A) (A) (A) (A) (A) (A) (A) (A) (A) (A) (A)
                 (A) (A) (A) (A) (A) (A) (A) (A) (A) (A) (A) (A)
                 (A) (A) (A) (A) (A) (A) (A) (A) (A) (A) (A) (A)
                 (A) (A) (A) (A) (A) (A) (A) (A) (A) (A) (A) (A)
                 (A) (A) (A) (A) (A) (A) (A) (A) (A) (A) (A) (A)
                 (A) (A) (A) (A) (A) (A) (A) (A) (A) (A) (A) (A)
                 (A) (A) (A) (A) (A) (A) (A) (A) (A) (A) (A) (A)
                 (A) (A) (A) (A) (A) (A) (A) (A) (A) (A) (A) (A)
                 (A) (A) (A) (A) (A) (A) (A) (A) (A) (A) (A) (A)
                 (A) (A) (A) (A) (A) (A) (A) (A) (A) (A) (A) (A)
                 (A) (A) (A) (A) (A) (A) (A) (A) (A) (A) (A) (A)
                 (A) (A) (A) (A) (A) (A) (A) (A) (A) (A) (A) (A)
                 (A) (A) (A) (A) (A) (A) (A) (A) (A) (A) (A) (A)
                 (A) (A) (A) (A) (A) (A) (A) (A) (A) (A) (A) (A)
                 (A) (A) (A) (A) (A) (A) (A) (A) (A) (A) (A) (A)
                 (A) (A) (A) (A) (A) (A) (A) (A) (A) (A) (A) (A)
                 (A) (A) (A) (A) (A) (A) (A) (A) (A) (A) (A) (A)
                 (A) (A) (A) (A) (A) (A) (A) (A) (A) (A) (A) (A)
                 (A) (A) (A) (A) (A) (A) (A) (A) (A) (A) (A) (A)
                 (A) (A) (A) (A) (A) (A) (A) (A) (A) (A) (A) (A)
                 (A) (A) (A) (A) (A) (A) (A) (A) (A) (A) (A) (A)
                 (A) (A) (A) (A) (A) (A) (A) (A) (A) (A) (A) (A)
                 (A) (A) (A) (A) (A) (A) (A) (A) (A) (A) (A) (A)
                 (A) (A) (A) (A) (A) (A) (A) (A) (A) (A) (A) (A)
                 (A) (A) (A) (A) (A) (A) (A) (A) (A) (A) (A) (A)
                 (A) (A) (A) (A) (A) (A) (A) (A) (A) (A) (A) (A)
                 (A) (A) (A) (A) (A) (A) (A) (A) (A) (A) (A) (A)
                 (A) (A) (A) (A) (A) (A) (A) (A) (A) (A) (A) (A)
                 (A) (A) (A) (A) (A) (A) (A) (A) (A) (A) (A) (A)
                 (A) (A) (A) (A) (A) (A) (A) (A) (A) (A) (A) (A)
                 (A) (A) (A) (A) (A) (A) (A) (A) (A) (A) (A) (A)
                 (A) (A) (A) (A) (A) (A) (A) (A) (A) (A) (A) (A)
                 (A) (A) (A) (A) (A) (A) (A) (A) (A) (A) (A) (A)
                 (A) (A) (A) (A) (A) (A) (A) (A) (A) (A) (A) (A)
                 (A) (A) (A) (A) (A) (A) (A) (A) (A) (A) (A) (A)
                 (A) (A) (A) (A) (A) (A) (A) (A) (A) (A) (A) (A)
                 (A) (A) (A) (A) (A) (A) (A) (A) (A) (A) (A) (A)
                 (A) (A) (A) (A)
 Beta  Orbitals:
       Occupied  (A) (A) (A) (A) (A) (A) (A) (A) (A) (A) (A) (A)
                 (A) (A) (A) (A) (A) (A) (A) (A) (A) (A) (A) (A)
                 (A) (A) (A) (A) (A) (A) (A) (A) (A) (A) (A) (A)
                 (A) (A) (A) (A) (A) (A) (A) (A) (A) (A) (A) (A)
                 (A) (A) (A) (A) (A) (A) (A) (A) (A) (A) (A) (A)
                 (A) (A) (A) (A) (A) (A) (A) (A) (A) (A) (A) (A)
                 (A) (A) (A) (A) (A) (A) (A) (A) (A) (A) (A) (A)
                 (A) (A) (A) (A) (A) (A) (A) (A) (A) (A) (A) (A)
                 (A) (A) (A) (A) (A) (A) (A) (A) (A) (A) (A) (A)
                 (A) (A) (A) (A) (A) (A) (A) (A) (A) (A) (A) (A)
                 (A) (A) (A) (A) (A) (A) (A) (A) (A) (A) (A) (A)
                 (A) (A) (A) (A) (A) (A) (A) (A) (A) (A) (A) (A)
                 (A) (A) (A) (A) (A) (A) (A) (A) (A) (A) (A) (A)
                 (A) (A) (A) (A) (A) (A) (A) (A) (A) (A) (A) (A)
                 (A) (A) (A) (A)
       Virtual   (A) (A) (A) (A) (A) (A) (A) (A) (A) (A) (A) (A)
                 (A) (A) (A) (A) (A) (A) (A) (A) (A) (A) (A) (A)
                 (A) (A) (A) (A) (A) (A) (A) (A) (A) (A) (A) (A)
                 (A) (A) (A) (A) (A) (A) (A) (A) (A) (A) (A) (A)
                 (A) (A) (A) (A) (A) (A) (A) (A) (A) (A) (A) (A)
                 (A) (A) (A) (A) (A) (A) (A) (A) (A) (A) (A) (A)
                 (A) (A) (A) (A) (A) (A) (A) (A) (A) (A) (A) (A)
                 (A) (A) (A) (A) (A) (A) (A) (A) (A) (A) (A) (A)
                 (A) (A) (A) (A) (A) (A) (A) (A) (A) (A) (A) (A)
                 (A) (A) (A) (A) (A) (A) (A) (A) (A) (A) (A) (A)
                 (A) (A) (A) (A) (A) (A) (A) (A) (A) (A) (A) (A)
                 (A) (A) (A) (A) (A) (A) (A) (A) (A) (A) (A) (A)
                 (A) (A) (A) (A) (A) (A) (A) (A) (A) (A) (A) (A)
                 (A) (A) (A) (A) (A) (A) (A) (A) (A) (A) (A) (A)
                 (A) (A) (A) (A) (A) (A) (A) (A) (A) (A) (A) (A)
                 (A) (A) (A) (A) (A) (A) (A) (A) (A) (A) (A) (A)
                 (A) (A) (A) (A) (A) (A) (A) (A) (A) (A) (A) (A)
                 (A) (A) (A) (A) (A) (A) (A) (A) (A) (A) (A) (A)
                 (A) (A) (A) (A) (A) (A) (A) (A) (A) (A) (A) (A)
                 (A) (A) (A) (A) (A) (A) (A) (A) (A) (A) (A) (A)
                 (A) (A) (A) (A) (A) (A) (A) (A) (A) (A) (A) (A)
                 (A) (A) (A) (A) (A) (A) (A) (A) (A) (A) (A) (A)
                 (A) (A) (A) (A) (A) (A) (A) (A) (A) (A) (A) (A)
                 (A) (A) (A) (A) (A) (A) (A) (A) (A) (A) (A) (A)
                 (A) (A) (A) (A) (A) (A) (A) (A) (A) (A) (A) (A)
                 (A) (A) (A) (A) (A) (A) (A) (A) (A) (A) (A) (A)
                 (A) (A) (A) (A) (A) (A) (A) (A) (A) (A) (A) (A)
                 (A) (A) (A) (A) (A) (A) (A) (A) (A) (A) (A) (A)
                 (A) (A) (A) (A) (A) (A) (A) (A) (A) (A) (A) (A)
                 (A) (A) (A) (A) (A) (A) (A) (A) (A) (A) (A) (A)
                 (A) (A) (A) (A) (A) (A) (A) (A) (A) (A) (A) (A)
                 (A) (A) (A) (A) (A) (A) (A) (A) (A) (A) (A) (A)
                 (A) (A) (A) (A) (A) (A) (A) (A) (A) (A) (A) (A)
                 (A) (A) (A) (A) (A) (A) (A) (A) (A) (A) (A) (A)
                 (A) (A) (A) (A) (A) (A) (A) (A) (A) (A) (A) (A)
                 (A) (A) (A) (A) (A) (A) (A) (A) (A) (A) (A) (A)
                 (A) (A) (A) (A) (A) (A) (A) (A) (A) (A) (A) (A)
                 (A) (A) (A) (A) (A) (A) (A) (A) (A) (A) (A) (A)
                 (A) (A) (A) (A) (A) (A) (A) (A) (A) (A) (A) (A)
                 (A) (A) (A) (A) (A) (A) (A) (A) (A) (A) (A) (A)
                 (A) (A) (A) (A) (A) (A) (A) (A) (A) (A) (A) (A)
                 (A) (A) (A) (A) (A) (A) (A) (A) (A) (A) (A) (A)
                 (A) (A) (A) (A) (A) (A) (A) (A) (A) (A) (A) (A)
                 (A) (A) (A) (A) (A) (A) (A) (A) (A) (A) (A) (A)
                 (A) (A) (A) (A) (A) (A) (A) (A) (A) (A) (A) (A)
                 (A) (A) (A) (A) (A) (A) (A) (A) (A) (A) (A) (A)
                 (A) (A) (A) (A) (A) (A) (A) (A) (A) (A) (A) (A)
                 (A) (A) (A) (A) (A) (A) (A) (A) (A) (A) (A) (A)
                 (A) (A) (A) (A) (A) (A) (A) (A) (A) (A) (A) (A)
                 (A) (A) (A) (A) (A) (A) (A) (A) (A) (A) (A) (A)
                 (A) (A) (A) (A) (A) (A) (A) (A) (A) (A) (A) (A)
                 (A) (A) (A) (A) (A) (A) (A) (A) (A) (A) (A) (A)
                 (A) (A) (A) (A) (A) (A) (A) (A) (A) (A) (A) (A)
                 (A) (A) (A) (A) (A) (A) (A) (A) (A) (A) (A) (A)
                 (A) (A) (A) (A) (A) (A) (A) (A) (A) (A) (A) (A)
                 (A) (A) (A) (A) (A) (A) (A) (A) (A) (A) (A) (A)
                 (A) (A) (A) (A) (A) (A) (A) (A) (A) (A) (A) (A)
                 (A) (A) (A) (A) (A) (A) (A) (A) (A) (A) (A) (A)
                 (A) (A) (A) (A) (A) (A) (A) (A) (A) (A) (A) (A)
                 (A) (A) (A) (A) (A) (A) (A) (A) (A) (A) (A) (A)
                 (A) (A) (A) (A) (A) (A) (A) (A) (A) (A) (A) (A)
                 (A) (A) (A) (A) (A) (A) (A) (A) (A) (A) (A) (A)
                 (A) (A) (A) (A) (A) (A) (A) (A) (A) (A) (A) (A)
                 (A) (A) (A) (A) (A)
 The electronic state is 2-A.
 Alpha  occ. eigenvalues -- -276.27299 -88.27557 -32.42193 -28.16266 -28.15625
 Alpha  occ. eigenvalues --  -28.15391 -18.74587 -18.74496 -14.02809 -14.02727
 Alpha  occ. eigenvalues --  -14.02715 -14.02550 -14.02380 -14.01291  -9.94378
 Alpha  occ. eigenvalues --   -9.94349  -9.94325  -9.94278  -9.94237  -9.94234
 Alpha  occ. eigenvalues --   -9.94203  -9.94137  -9.93179  -9.93026  -9.91917
 Alpha  occ. eigenvalues --   -9.91903  -9.91681  -9.91652  -9.91089  -9.91059
 Alpha  occ. eigenvalues --   -9.91049  -9.91006  -9.91005  -9.90968  -9.90937
 Alpha  occ. eigenvalues --   -9.90805  -9.90764  -9.90531  -9.90520  -9.90022
 Alpha  occ. eigenvalues --   -9.90011  -9.89973  -9.89963  -9.89939  -9.89899
 Alpha  occ. eigenvalues --   -9.89849  -9.89835  -9.89731  -9.89253  -9.87847
 Alpha  occ. eigenvalues --   -7.84297  -5.86339  -5.86263  -5.86149  -3.58514
 Alpha  occ. eigenvalues --   -2.31766  -2.30969  -2.30017  -1.00981  -0.90160
 Alpha  occ. eigenvalues --   -0.89794  -0.88870  -0.88812  -0.87888  -0.85361
 Alpha  occ. eigenvalues --   -0.77952  -0.77459  -0.76173  -0.75703  -0.73126
 Alpha  occ. eigenvalues --   -0.73101  -0.72363  -0.71497  -0.70955  -0.70879
 Alpha  occ. eigenvalues --   -0.70548  -0.69243  -0.68540  -0.67361  -0.67068
 Alpha  occ. eigenvalues --   -0.65973  -0.65802  -0.63157  -0.60978  -0.60342
 Alpha  occ. eigenvalues --   -0.60313  -0.55638  -0.55051  -0.54324  -0.54173
 Alpha  occ. eigenvalues --   -0.53364  -0.53196  -0.52967  -0.52915  -0.52752
 Alpha  occ. eigenvalues --   -0.51120  -0.50441  -0.50154  -0.48277  -0.48236
 Alpha  occ. eigenvalues --   -0.48086  -0.47432  -0.46372  -0.46194  -0.45669
 Alpha  occ. eigenvalues --   -0.45653  -0.45048  -0.43538  -0.42287  -0.41830
 Alpha  occ. eigenvalues --   -0.41237  -0.40653  -0.40325  -0.40264  -0.39965
 Alpha  occ. eigenvalues --   -0.39676  -0.39314  -0.39092  -0.39034  -0.38694
 Alpha  occ. eigenvalues --   -0.38600  -0.38462  -0.38084  -0.37506  -0.37368
 Alpha  occ. eigenvalues --   -0.37039  -0.36872  -0.36549  -0.36528  -0.36490
 Alpha  occ. eigenvalues --   -0.35885  -0.35810  -0.35753  -0.35246  -0.35187
 Alpha  occ. eigenvalues --   -0.34800  -0.34211  -0.34174  -0.33233  -0.32863
 Alpha  occ. eigenvalues --   -0.32522  -0.32401  -0.31726  -0.30693  -0.30651
 Alpha  occ. eigenvalues --   -0.30396  -0.30199  -0.30079  -0.29775  -0.29703
 Alpha  occ. eigenvalues --   -0.29594  -0.29508  -0.28279  -0.27133  -0.26873
 Alpha  occ. eigenvalues --   -0.26407  -0.25495  -0.25164  -0.24842  -0.24600
 Alpha  occ. eigenvalues --   -0.23186  -0.23089  -0.22780  -0.22687  -0.22532
 Alpha  occ. eigenvalues --   -0.22266  -0.22194  -0.20489  -0.20180  -0.19794
 Alpha  occ. eigenvalues --   -0.19450  -0.18967  -0.18571
 Alpha virt. eigenvalues --   -0.13325  -0.12472  -0.11460  -0.11440  -0.06571
 Alpha virt. eigenvalues --   -0.05720  -0.04187  -0.04011  -0.03691  -0.00815
 Alpha virt. eigenvalues --   -0.00029   0.01134   0.01152   0.01658   0.02513
 Alpha virt. eigenvalues --    0.02750   0.03111   0.03450   0.03526   0.03845
 Alpha virt. eigenvalues --    0.04532   0.04911   0.05188   0.05465   0.05689
 Alpha virt. eigenvalues --    0.05903   0.06281   0.06334   0.06419   0.06867
 Alpha virt. eigenvalues --    0.07130   0.07233   0.07710   0.07990   0.08039
 Alpha virt. eigenvalues --    0.08104   0.08580   0.09051   0.09258   0.09454
 Alpha virt. eigenvalues --    0.09570   0.10015   0.10051   0.10214   0.10402
 Alpha virt. eigenvalues --    0.11130   0.11588   0.12196   0.12589   0.12694
 Alpha virt. eigenvalues --    0.13421   0.14087   0.14390   0.14643   0.15502
 Alpha virt. eigenvalues --    0.15670   0.16276   0.16598   0.17602   0.17848
 Alpha virt. eigenvalues --    0.18110   0.18290   0.18337   0.18776   0.19484
 Alpha virt. eigenvalues --    0.19593   0.19696   0.20873   0.21386   0.22124
 Alpha virt. eigenvalues --    0.23062   0.23135   0.23284   0.23838   0.24038
 Alpha virt. eigenvalues --    0.24283   0.24491   0.24886   0.25715   0.25842
 Alpha virt. eigenvalues --    0.26360   0.26460   0.26547   0.26861   0.27565
 Alpha virt. eigenvalues --    0.27910   0.28299   0.28637   0.29285   0.29639
 Alpha virt. eigenvalues --    0.29833   0.30322   0.30933   0.31068   0.31834
 Alpha virt. eigenvalues --    0.31898   0.32159   0.32739   0.33112   0.33209
 Alpha virt. eigenvalues --    0.33362   0.33624   0.33881   0.34054   0.34129
 Alpha virt. eigenvalues --    0.34344   0.34463   0.34590   0.34997   0.35753
 Alpha virt. eigenvalues --    0.35798   0.35976   0.36115   0.36292   0.36490
 Alpha virt. eigenvalues --    0.36644   0.36756   0.37022   0.37192   0.37235
 Alpha virt. eigenvalues --    0.37329   0.37779   0.38112   0.38302   0.38529
 Alpha virt. eigenvalues --    0.38726   0.38968   0.39241   0.39596   0.39670
 Alpha virt. eigenvalues --    0.39864   0.40184   0.40355   0.40575   0.40840
 Alpha virt. eigenvalues --    0.41175   0.41424   0.42124   0.42525   0.43211
 Alpha virt. eigenvalues --    0.43583   0.43805   0.44073   0.44423   0.44656
 Alpha virt. eigenvalues --    0.45183   0.45356   0.45794   0.46073   0.46237
 Alpha virt. eigenvalues --    0.46722   0.47031   0.47545   0.47691   0.48091
 Alpha virt. eigenvalues --    0.48112   0.48318   0.48388   0.48838   0.49250
 Alpha virt. eigenvalues --    0.49787   0.50220   0.50361   0.50876   0.51140
 Alpha virt. eigenvalues --    0.51620   0.52321   0.52681   0.52744   0.52975
 Alpha virt. eigenvalues --    0.53245   0.53516   0.53989   0.54241   0.54853
 Alpha virt. eigenvalues --    0.55078   0.55327   0.55508   0.55703   0.55893
 Alpha virt. eigenvalues --    0.56006   0.56303   0.56475   0.56863   0.57229
 Alpha virt. eigenvalues --    0.57302   0.57659   0.57989   0.58276   0.58637
 Alpha virt. eigenvalues --    0.58896   0.58995   0.59703   0.59970   0.60227
 Alpha virt. eigenvalues --    0.60381   0.60639   0.61239   0.61506   0.61569
 Alpha virt. eigenvalues --    0.61921   0.62061   0.62306   0.62577   0.62638
 Alpha virt. eigenvalues --    0.63110   0.63665   0.64116   0.64888   0.65221
 Alpha virt. eigenvalues --    0.65581   0.66243   0.66562   0.67281   0.67562
 Alpha virt. eigenvalues --    0.68136   0.68719   0.69121   0.69347   0.69585
 Alpha virt. eigenvalues --    0.70162   0.70307   0.70478   0.70592   0.70876
 Alpha virt. eigenvalues --    0.71024   0.71445   0.71740   0.71825   0.72087
 Alpha virt. eigenvalues --    0.73098   0.73639   0.73798   0.74242   0.74375
 Alpha virt. eigenvalues --    0.74799   0.75205   0.75417   0.75602   0.76308
 Alpha virt. eigenvalues --    0.76599   0.77130   0.77503   0.77678   0.77764
 Alpha virt. eigenvalues --    0.78309   0.78954   0.79969   0.80457   0.80987
 Alpha virt. eigenvalues --    0.81127   0.81421   0.82354   0.83692   0.84079
 Alpha virt. eigenvalues --    0.84741   0.85188   0.85342   0.85450   0.86335
 Alpha virt. eigenvalues --    0.87151   0.87448   0.87652   0.88169   0.88942
 Alpha virt. eigenvalues --    0.89041   0.89208   0.90207   0.90684   0.91052
 Alpha virt. eigenvalues --    0.91725   0.91995   0.92241   0.92819   0.93384
 Alpha virt. eigenvalues --    0.93572   0.94134   0.95196   0.95517   0.96161
 Alpha virt. eigenvalues --    0.96843   0.97406   0.97838   0.98493   0.98819
 Alpha virt. eigenvalues --    0.98914   0.99787   1.00155   1.01359   1.01465
 Alpha virt. eigenvalues --    1.01782   1.02047   1.03040   1.03310   1.03763
 Alpha virt. eigenvalues --    1.04423   1.04703   1.05202   1.05519   1.06473
 Alpha virt. eigenvalues --    1.06756   1.07108   1.07204   1.07476   1.08331
 Alpha virt. eigenvalues --    1.08884   1.09013   1.09094   1.09505   1.09941
 Alpha virt. eigenvalues --    1.10620   1.10874   1.11030   1.11381   1.12055
 Alpha virt. eigenvalues --    1.12834   1.13401   1.14238   1.14318   1.14473
 Alpha virt. eigenvalues --    1.15134   1.15968   1.16042   1.16588   1.16981
 Alpha virt. eigenvalues --    1.17353   1.17982   1.18566   1.19408   1.19553
 Alpha virt. eigenvalues --    1.20007   1.20287   1.20744   1.21992   1.22224
 Alpha virt. eigenvalues --    1.23116   1.23281   1.24002   1.24666   1.25797
 Alpha virt. eigenvalues --    1.26264   1.27614   1.28749   1.29029   1.29929
 Alpha virt. eigenvalues --    1.31535   1.33941   1.34291   1.34423   1.35513
 Alpha virt. eigenvalues --    1.36384   1.36655   1.37813   1.38110   1.38239
 Alpha virt. eigenvalues --    1.38459   1.39198   1.40180   1.40635   1.41529
 Alpha virt. eigenvalues --    1.41670   1.41942   1.42414   1.42476   1.42815
 Alpha virt. eigenvalues --    1.43284   1.43830   1.44163   1.44876   1.45397
 Alpha virt. eigenvalues --    1.46394   1.47190   1.47558   1.48888   1.49365
 Alpha virt. eigenvalues --    1.50489   1.50701   1.51632   1.52114   1.52495
 Alpha virt. eigenvalues --    1.53249   1.53734   1.53937   1.54469   1.55096
 Alpha virt. eigenvalues --    1.56435   1.56754   1.57102   1.57451   1.57884
 Alpha virt. eigenvalues --    1.58417   1.59119   1.59710   1.59979   1.62315
 Alpha virt. eigenvalues --    1.62601   1.62726   1.62985   1.64206   1.64508
 Alpha virt. eigenvalues --    1.65459   1.65708   1.66252   1.66822   1.67110
 Alpha virt. eigenvalues --    1.67797   1.68355   1.69174   1.69578   1.69760
 Alpha virt. eigenvalues --    1.70453   1.71131   1.71475   1.71598   1.71959
 Alpha virt. eigenvalues --    1.72466   1.72838   1.73908   1.74198   1.74432
 Alpha virt. eigenvalues --    1.75266   1.75638   1.76853   1.77151   1.78610
 Alpha virt. eigenvalues --    1.79078   1.79563   1.79912   1.80197   1.80431
 Alpha virt. eigenvalues --    1.80677   1.80793   1.81811   1.82646   1.83006
 Alpha virt. eigenvalues --    1.83159   1.83568   1.83759   1.84029   1.84290
 Alpha virt. eigenvalues --    1.84540   1.84652   1.85068   1.85146   1.85376
 Alpha virt. eigenvalues --    1.85802   1.86285   1.86658   1.86899   1.87347
 Alpha virt. eigenvalues --    1.87707   1.88578   1.89482   1.90023   1.91333
 Alpha virt. eigenvalues --    1.92642   1.93019   1.94830   1.95281   1.96905
 Alpha virt. eigenvalues --    1.97967   1.99180   2.00248   2.00663   2.01411
 Alpha virt. eigenvalues --    2.03461   2.03668   2.04012   2.06517   2.07508
 Alpha virt. eigenvalues --    2.07732   2.08226   2.09652   2.11208   2.12114
 Alpha virt. eigenvalues --    2.13691   2.14110   2.15494   2.15581   2.15852
 Alpha virt. eigenvalues --    2.16197   2.16451   2.16674   2.17124   2.17736
 Alpha virt. eigenvalues --    2.17889   2.18596   2.19097   2.21196   2.21396
 Alpha virt. eigenvalues --    2.21665   2.21961   2.22318   2.22871   2.23354
 Alpha virt. eigenvalues --    2.24033   2.25309   2.25682   2.25971   2.26632
 Alpha virt. eigenvalues --    2.26967   2.27057   2.28063   2.28377   2.29055
 Alpha virt. eigenvalues --    2.29594   2.29932   2.30621   2.31594   2.32111
 Alpha virt. eigenvalues --    2.34206   2.34490   2.35047   2.35741   2.36566
 Alpha virt. eigenvalues --    2.36760   2.36941   2.38272   2.39396   2.40017
 Alpha virt. eigenvalues --    2.40819   2.42213   2.42746   2.43010   2.44194
 Alpha virt. eigenvalues --    2.44576   2.45017   2.45625   2.46092   2.46487
 Alpha virt. eigenvalues --    2.46858   2.47849   2.48941   2.49585   2.51273
 Alpha virt. eigenvalues --    2.52792   2.53752   2.54072   2.54814   2.54940
 Alpha virt. eigenvalues --    2.55822   2.56269   2.57543   2.58407   2.59450
 Alpha virt. eigenvalues --    2.59825   2.60452   2.60948   2.61315   2.62898
 Alpha virt. eigenvalues --    2.63066   2.63842   2.64052   2.64928   2.65486
 Alpha virt. eigenvalues --    2.66420   2.67439   2.67594   2.67881   2.70042
 Alpha virt. eigenvalues --    2.71270   2.73420   2.73860   2.74525   2.74829
 Alpha virt. eigenvalues --    2.75131   2.75616   2.75898   2.76724   2.76903
 Alpha virt. eigenvalues --    2.77159   2.78095   2.78599   2.78892   2.79874
 Alpha virt. eigenvalues --    2.80442   2.81921   2.82594   2.83915   2.84233
 Alpha virt. eigenvalues --    2.84862   2.86030   2.86560   2.87702   2.88799
 Alpha virt. eigenvalues --    2.89281   2.89782   2.90694   2.91796   2.93337
 Alpha virt. eigenvalues --    2.95273   2.95646   2.96282   2.97835   2.98338
 Alpha virt. eigenvalues --    2.98517   2.98906   3.01486   3.01580   3.02457
 Alpha virt. eigenvalues --    3.02909   3.03195   3.07275   3.07372   3.08999
 Alpha virt. eigenvalues --    3.09679   3.10280   3.11541   3.12174   3.12630
 Alpha virt. eigenvalues --    3.13375   3.14270   3.14822   3.15262   3.15430
 Alpha virt. eigenvalues --    3.15534   3.16157   3.17062   3.17702   3.18404
 Alpha virt. eigenvalues --    3.18551   3.19020   3.19348   3.19495   3.20090
 Alpha virt. eigenvalues --    3.20286   3.20337   3.21967   3.22371   3.23957
 Alpha virt. eigenvalues --    3.24596   3.24909   3.25342   3.26154   3.26907
 Alpha virt. eigenvalues --    3.27759   3.29754   3.30923   3.31221   3.31905
 Alpha virt. eigenvalues --    3.32356   3.34170   3.34426   3.35643   3.40265
 Alpha virt. eigenvalues --    3.42532   3.43081   3.43520   3.43784   3.44509
 Alpha virt. eigenvalues --    3.44726   3.45217   3.46881   3.55544   3.55922
 Alpha virt. eigenvalues --    3.56442   3.58931   3.59566   3.60280   3.67692
 Alpha virt. eigenvalues --    3.69436   3.70754   3.71848   3.73535   3.75001
 Alpha virt. eigenvalues --    3.76651   3.76982   3.77792   3.79661   3.82192
 Alpha virt. eigenvalues --    3.84556   3.86222   3.86935   3.87930   3.91647
 Alpha virt. eigenvalues --    3.92329   3.96916   3.97024   3.99437   4.04377
 Alpha virt. eigenvalues --    4.11116   4.20879   4.21963   4.27287   4.38231
 Alpha virt. eigenvalues --    4.39044   4.39912   4.48478   4.53389   4.55337
 Alpha virt. eigenvalues --    4.56593   4.66462   4.67100   4.67651   4.71724
 Alpha virt. eigenvalues --    4.73255   4.73661   4.74895   4.77655   4.80064
 Alpha virt. eigenvalues --    4.80580   4.81128   4.87267   4.89706   4.90451
 Alpha virt. eigenvalues --    4.93494   4.98899   4.99964   5.00009   5.07509
 Alpha virt. eigenvalues --    5.08649   7.85932  17.09934  17.13016  17.23421
 Alpha virt. eigenvalues --   22.94754  22.96033  23.13362  23.19104  23.19687
 Alpha virt. eigenvalues --   23.23795  23.29134  23.35326  23.37724  23.44461
 Alpha virt. eigenvalues --   23.44687  23.45008  23.49048  23.50999  23.52233
 Alpha virt. eigenvalues --   23.54964  23.55620  23.65001  23.67727  23.67753
 Alpha virt. eigenvalues --   23.69658  23.71319  23.73281  23.74158  23.74188
 Alpha virt. eigenvalues --   23.80296  23.81595  23.81845  23.82663  23.82704
 Alpha virt. eigenvalues --   23.82926  23.82951  23.83130  23.83686  23.83736
 Alpha virt. eigenvalues --   23.88115  35.05677  35.09578  35.23095  35.24703
 Alpha virt. eigenvalues --   35.25453  35.26786  49.43078  49.48702 188.19698
  Beta  occ. eigenvalues -- -276.27293 -88.27568 -32.41423 -28.15528 -28.15149
  Beta  occ. eigenvalues --  -28.14868 -18.74429 -18.74339 -14.02790 -14.02742
  Beta  occ. eigenvalues --  -14.02690 -14.02575 -14.02395 -14.00277  -9.94381
  Beta  occ. eigenvalues --   -9.94351  -9.94327  -9.94278  -9.94238  -9.94234
  Beta  occ. eigenvalues --   -9.94203  -9.94139  -9.93177  -9.93026  -9.91920
  Beta  occ. eigenvalues --   -9.91908  -9.91684  -9.91656  -9.91090  -9.91058
  Beta  occ. eigenvalues --   -9.91050  -9.91005  -9.91005  -9.90969  -9.90937
[...]
 00000200,0.00000363,-0.00000008,0.00000448,0.00000560,0.00000496,-0.00
 000463,-0.00000033,-0.00000481,0.00000768,-0.00000639,0.00000114,-0.00
 011278,-0.00015491,-0.00012746,0.00004153,-0.00009752,0.00005885,0.000
 00118,-0.00000716,0.00000073,0.00004122,-0.00004321,0.00008494,-0.0000
 2119,-0.00000694,-0.00005248,-0.00000173,-0.00000261,0.00000352,0.0000
 0362,0.00004521,0.00004933,-0.00000889,0.00003287,-0.00004368,0.000026
 47,0.00001147,-0.00001440,-0.00000860,0.00004022,0.00011746,-0.0000242
 6,-0.00003147,-0.00000807,0.00000173,0.00000201,0.00000125,-0.00000572
 ,0.00000724,-0.00002040,-0.00000253,-0.00000238,-0.00000144,0.00000413
 ,-0.00001063,0.00002651,0.00010085,0.00030877,-0.00032816,-0.00020758,
 -0.00012537,-0.00019391,0.00123077,0.00103262,-0.00006744,0.00319387,0
 .01483341,0.00980240,-0.00008526,-0.00004638,0.00003864,-0.00268566,0.
 00269136,-0.00142884,0.00005625,0.00069333,0.00084489,-0.00015321,-0.0
 0035442,0.00007262,0.00011831,0.00044324,-0.00055823,-0.00013785,0.000
 76622,-0.00038435,0.00116016,-0.00090312,0.00025895,-0.00012360,0.0005
 8475,0.00016490,-0.00007827,0.00004053,0.00003741,-0.00045350,-0.00204
 065,0.00014551,-0.00282836,0.00225052,-0.00442285,-0.00301274,-0.02775
 783,-0.00822987,-0.02384963,-0.10339733,-0.10272491,-0.00004381,0.0004
 8114,-0.00034278,0.00006603,0.00008387,-0.00003934,0.02777775,0.110759
 67,0.10741910,0.00000103,0.00000113,-0.00000201,0.00000554,-0.00000017
 ,0.00000773,0.00000065,0.00000197,-0.00001009,-0.00001712,0.00001156,0
 .00001731,0.00000331,0.00000024,-0.00001158,0.00000198,0.00000106,0.00
 000095,0.00000449,-0.00000088,-0.00000320,-0.00000033,-0.00000041,-0.0
 0000368,-0.00000062,-0.00001235,-0.00000422,-0.00000395,-0.00000254,0.
 00000176,0.00000514,-0.00000101,0.00000025,-0.00003214,-0.00001897,-0.
 00001233,0.00002727,0.00001675,0.00003446,-0.00000400,0.00000195,-0.00
 000940,-0.00000351,-0.00000009,-0.00000813,-0.00002556,0.00000879,-0.0
 0002587,0.00004913,0.00001453,0.00006592,0.00000562,-0.00004196,0.0000
 0932,-0.00002134,-0.00000680,-0.00001398,-0.00000524,0.00002076,-0.000
 01638,-0.00000498,-0.00000355,0.00001515,-0.00000402,0.00000210,0.0000
 0103,0.00000077,-0.00000186,-0.00000202,0.00000005,0.00000655,0.000003
 54,-0.00000108,-0.00000304,-0.00000205,-0.00000316,0.00000132,-0.00000
 090,0.00000330,-0.00000207,-0.00000311,-0.00000060,-0.00000134,0.00000
 058,0.00000011,-0.00000043,-0.00000078,0.00000170,0.00000051,-0.000001
 43,0.00000049,0.00000179,-0.00000159,0.00000017,0.00000413,0.00000123,
 0.00000156,-0.00000018,0.00000078,0.00000036,-0.00000042,0.00000127,0.
 00005904,-0.00002033,-0.00000450,-0.00006572,0.00003257,0.00001513,0.0
 0001544,-0.00000745,0.00001454,0.00002899,0.00003431,0.00006058,-0.000
 11820,0.00007933,-0.00000461,0.00000732,0.00000281,-0.00000429,0.00008
 216,-0.00003103,-0.00017674,0.00006374,-0.00000568,-0.00000124,-0.0000
 0200,0.00000452,0.00000169,-0.00001609,-0.00001091,-0.00001859,-0.0006
 0326,-0.00001938,0.00032455,0.00502529,-0.00166494,-0.00158617,0.00117
 910,-0.00152852,0.00348871,-0.00331228,0.00013790,0.00149271,0.0002957
 9,-0.00003367,-0.00012557,0.00052255,0.00008312,-0.00037012,0.00027621
 ,-0.00005607,-0.00007334,0.00096409,0.00000961,0.00002109,-0.00002256,
 -0.00003351,-0.00002171,-0.00000252,-0.00000285,-0.00000019,0.00003917
 ,0.00001182,-0.00004470,0.00013870,0.00007972,-0.00002563,0.00000477,-
 0.00000079,-0.00000549,-0.00012241,-0.00000496,0.00001042,0.00000729,0
 .00000494,0.00001707,-0.00000517,-0.00001350,-0.00001166,-0.04130958,0
 .02083287,-0.05378455,0.00027881,-0.00002873,-0.00003683,0.00056168,-0
 .00009645,-0.00014108,-0.00335941,0.00050638,0.00117139,0.00029525,-0.
 00031266,-0.00003119,-0.00107107,0.00504185,-0.00679484,0.00502168,-0.
 00182670,-0.00197048,0.00078445,0.00035394,-0.00061511,-0.00063210,-0.
 00022027,0.00020741,-0.00013702,-0.00011504,-0.00002256,-0.00000141,0.
 00000115,-0.00000207,-0.00022382,-0.00000293,0.00001491,0.03556204,0.0
 0000189,-0.00000087,-0.00000254,-0.00000309,0.00000032,-0.00000014,0.0
 0001278,0.00000430,-0.00000337,-0.00001676,0.00000024,0.00000960,0.000
 00294,-0.00000112,-0.00000145,-0.00000212,-0.00000037,-0.00000085,0.00
 000025,0.00000033,-0.00000050,0.00000181,-0.00000015,-0.00000335,0.000
 00196,0.00000015,0.00000115,-0.00000367,0.00000070,-0.00000201,0.00000
 003,0.00000031,-0.00000047,-0.00000484,-0.00001420,-0.00000061,0.00001
 925,0.00001313,0.00002365,-0.00000609,-0.00000050,-0.00000280,0.000003
 32,-0.00000124,-0.00000148,-0.00002079,0.00000505,0.00000850,0.0000492
 3,0.00000271,-0.00007542,0.00005399,0.00004523,0.00000657,-0.00000919,
 -0.00000518,0.00001951,-0.00002481,-0.00001624,0.00001554,-0.00000751,
 -0.00001438,-0.00000909,0.00000313,0.00000540,-0.00000327,-0.00000051,
 -0.00000094,-0.00000102,0.00000147,0.00000668,0.00000235,-0.00000073,-
 0.00000241,0.00000312,-0.00000155,-0.00000094,0.00000077,-0.00000122,-
 0.00000116,0.00000191,-0.00000035,0.00000090,-0.00000173,-0.00000135,0
 .00000079,0.00000057,-0.00000067,0.00000030,0.00000123,0.00000033,-0.0
 0000055,0.00000099,0.00000158,0.00000088,-0.00000021,-0.00000101,0.000
 00091,0.00000064,0.00000124,0.00000103,-0.00000262,0.00000870,-0.00000
 913,-0.00001584,-0.00000689,0.00001705,0.00000352,0.00000029,-0.000005
 35,0.00000876,0.00000629,0.00004227,0.00001003,-0.00000129,0.00002291,
 -0.00000574,0.00000163,-0.00000170,0.00000262,-0.00002727,0.00010957,-
 0.00006030,0.00001512,-0.00001474,0.00003752,-0.00000202,0.00000262,-0
 .00000240,-0.00000894,-0.00002616,-0.00001240,-0.00019055,-0.00053496,
 -0.00042997,-0.00215158,-0.00494307,-0.00171279,0.00731838,-0.00916620
 ,0.02816648,0.00080107,0.00049645,0.00066316,-0.00034611,-0.00039367,-
 0.00073653,-0.00019728,0.00011056,-0.00048366,-0.00003356,0.00002960,-
 0.00003244,0.00056541,-0.00000836,0.00199510,-0.00001466,-0.00004759,-
 0.00002658,0.00000291,0.00000181,0.00000658,-0.00002994,0.00004395,-0.
 00003598,0.00004488,-0.00014230,0.00014852,-0.00000327,0.00000200,0.00
 000478,0.00004627,0.00007118,0.00008169,0.00003016,0.00009406,0.000027
 22,0.00000886,-0.00005584,0.00000347,0.02050645,-0.10620929,0.10395776
 ,-0.00002909,0.00000489,0.00004380,0.00001548,-0.00003854,0.00043435,0
 .00016103,0.00044613,-0.00120233,-0.00002853,-0.00026375,0.00015705,-0
 .00332474,0.01096216,-0.01557498,-0.00155900,-0.00250885,-0.00267943,-
 0.00025917,0.00089040,-0.00073771,0.00000205,-0.00029932,-0.00031000,-
 0.00019744,-0.00041920,-0.00039237,0.00000094,-0.00000069,0.00000291,-
 0.00000862,-0.00000994,-0.00009755,-0.02120212,0.11187133,-0.00000227,
 -0.00000107,0.00000405,-0.00000088,-0.00000248,-0.00000920,-0.00001046
 ,-0.00000902,0.00001332,0.00001621,-0.00000989,-0.00001125,-0.00000187
 ,-0.00000118,0.00000844,0.00000043,-0.00000138,-0.00000008,-0.00000211
 ,0.00000098,0.00000094,-0.00000199,0.00000197,0.00000522,-0.00000001,0
 .00001182,0.00000273,0.00000314,0.00000304,0.00000068,-0.00000145,0.00
 000141,0.00000054,0.00003666,0.00002427,0.00001009,-0.00005477,-0.0000
 3372,-0.00006293,0.00001664,-0.00000061,0.00001418,-0.00000291,0.00000
 133,0.00001109,0.00007148,-0.00001835,-0.00000219,-0.00017858,-0.00002
 872,0.00004829,-0.00002865,0.00001851,0.00003853,0.00003707,0.00001912
 ,-0.00005276,0.00006037,0.00003117,-0.00000598,0.00000988,0.00004459,0
 .00001303,-0.00000371,-0.00001394,0.00000761,-0.00000089,0.00000324,0.
 00000528,-0.00000060,-0.00001764,-0.00000460,0.00000005,0.00000927,-0.
 00000991,0.00000405,-0.00000013,-0.00000116,0.00000025,0.00000371,-0.0
 0000244,0.00000082,-0.00000219,0.00000339,0.00000262,-0.00000205,-0.00
 000118,0.00000082,-0.00000058,-0.00000129,-0.00000070,0.00000015,-0.00
 000042,-0.00000176,-0.00000339,0.00000158,0.00000262,-0.00000134,-0.00
 000202,-0.00000257,-0.00000197,0.00000593,-0.00006374,0.00001118,0.000
 00348,0.00006716,-0.00002973,0.00000393,-0.00002800,0.00002312,-0.0000
 3235,0.00000842,0.00006830,0.00002514,0.00007247,0.00009899,0.00001374
 ,-0.00000052,0.00000459,-0.00000261,-0.00011722,-0.00000606,-0.0001285
 5,0.00000096,-0.00000329,0.00004762,0.00000122,0.00000513,-0.00000265,
 -0.00002357,-0.00001147,-0.00003869,0.00025088,-0.00009879,0.00015468,
 -0.00110067,-0.00060410,0.00188728,-0.00023295,-0.00022520,0.00000392,
 0.00094190,-0.00137292,0.00028790,0.00003600,0.00025080,0.00024952,-0.
 00007578,0.00030110,0.00012993,-0.00006981,0.00003604,0.00002337,-0.00
 036351,-0.00015461,-0.00009148,0.00000718,-0.00001644,0.00000802,0.000
 00197,-0.00000158,-0.00000074,-0.00001567,-0.00000995,0.00001246,-0.00
 003975,0.00008046,0.00005414,-0.00000293,0.00000134,-0.00000439,0.0000
 4791,-0.00005217,-0.00004772,-0.00001180,-0.00002687,-0.00000503,-0.00
 000677,0.00002003,-0.00001256,-0.05310482,0.10384074,-0.25628475,-0.00
 007863,-0.00001828,0.00003961,-0.00014783,-0.00041505,0.00023651,0.001
 24074,0.00085414,0.00046461,-0.00012703,-0.00085345,0.00010576,-0.0038
 8972,0.01310800,-0.01765864,-0.00200488,-0.00390662,-0.00059811,-0.000
 43047,0.00140986,-0.00080622,0.00018793,-0.00060309,-0.00005826,0.0001
 1099,-0.00045104,0.00026838,-0.00000061,0.00000277,-0.00000460,0.00001
 750,-0.00000590,-0.00015348,0.05891900,-0.11127560,0.27192171,-0.00000
 110,-0.00000114,0.00000183,0.00000042,-0.00000275,0.00000297,-0.000002
 93,-0.00000335,0.00000219,-0.00000325,-0.00000646,0.00000517,-0.000001
 56,-0.00000423,-0.00000531,-0.00000075,-0.00000152,-0.00000041,0.00000
 185,0.00000095,-0.00000182,-0.00000088,0.00000246,-0.00000006,0.000001
 95,0.00000826,-0.00000541,-0.00000083,0.00000308,0.00000063,0.00000274
 ,0.00000143,0.00000030,-0.00000397,0.00000193,-0.00001011,-0.00000796,
 0.00001681,0.00000894,0.00000096,-0.00000191,-0.00000145,-0.00000417,0
 .00000508,0.00001470,0.00000301,-0.00005852,-0.00003098,0.00004986,0.0
 0015773,0.00000804,0.00003147,0.00003447,0.00003080,-0.00001060,-0.000
 04746,-0.00006046,-0.00008574,-0.00018576,-0.00009913,0.00000158,0.000
 01891,0.00001956,-0.00000486,-0.00000635,0.00000202,-0.00000037,0.0000
 0224,-0.00000257,0.00000411,-0.00000604,-0.00000131,-0.00000137,0.0000
 0138,-0.00000594,-0.00000103,0.00000032,-0.00000066,-0.00000130,0.0000
 0254,-0.00000217,-0.00000092,-0.00000401,0.00000172,0.00000002,-0.0000
 0080,-0.00000096,0.00000195,0.00000042,-0.00000123,0.00000034,0.000001
 88,-0.00000009,0.00000014,0.00000169,0.00000173,0.00000234,-0.00000046
 ,0.,0.00000190,0.00000124,0.00000957,0.00000694,-0.00000692,-0.0000056
 9,0.00000131,0.00000184,0.00000393,0.00000186,0.00000238,-0.00000064,0
 .00081071,-0.00101301,-0.00011775,0.00375846,0.00021895,-0.00421455,0.
 00024171,-0.00002184,-0.00013558,-0.00169079,-0.01071902,-0.00203174,-
 0.00307120,-0.00010512,0.00163392,0.00019802,0.00032956,-0.00032446,0.
 00061409,0.00039523,-0.00015138,-0.05884874,-0.07595559,-0.03954838,0.
 00480923,-0.00024659,-0.00202139,0.00084826,-0.00002321,-0.00014625,0.
 00054807,-0.00015683,-0.00003076,0.00024875,-0.00008036,-0.00007380,-0
 .00316903,0.00091598,0.00095562,0.00029566,-0.00009712,-0.00004290,0.0
 0182231,0.00325196,0.00136412,-0.00067341,0.00021995,0.00009694,0.0000
 0491,0.00000046,-0.00000681,-0.00002200,0.00002151,-0.00004114,0.00000
 576,0.00000647,0.00002400,-0.00000228,-0.00000131,-0.00000120,-0.00012
 417,-0.00000538,0.00000292,0.00017429,-0.00002656,0.00003746,0.0000373
 2,-0.00005665,-0.00005627,-0.00058904,0.00024918,0.00015939,0.00000762
 ,-0.00000264,0.00000035,-0.00001342,-0.00001292,-0.00002589,0.00006308
 ,0.00001277,0.00000691,-0.00000221,-0.00000475,0.00000109,0.00009108,-
 0.00009003,-0.00014347,-0.00011107,-0.00005216,0.00005608,0.00002014,-
 0.00000930,0.00009681,-0.00002651,0.00004049,-0.00004948,-0.00009809,0
 .00029068,-0.00001547,-0.00019765,-0.00002102,0.00003940,-0.00000065,-
 0.00000241,-0.00000082,-0.00019399,0.00003719,0.00005753,0.05425359,-0
 .00000115,0.00000162,0.00000131,0.00000574,0.00000041,-0.00000196,-0.0
 0001264,-0.00000340,0.00000080,0.00001300,0.00000775,-0.00000590,0.000
 00075,0.00000357,0.00000267,0.00000427,0.00000133,0.00000168,0.0000001
 7,-0.00000097,0.00000035,-0.00000188,-0.00000094,0.00000299,-0.0000043
 6,-0.00000905,0.00000289,0.00000272,-0.00000295,0.00000263,0.00000022,
 -0.00000126,0.00000053,0.00000742,0.00000838,0.00000647,-0.00001896,-0
 .00003400,-0.00003887,0.00001112,0.00000460,0.00000578,0.00000092,-0.0
 0000259,-0.00001445,0.00004382,0.00005325,0.00000633,-0.00022183,-0.00
 023815,0.00005078,-0.00009217,-0.00001232,0.00000299,0.00005601,0.0000
 6521,0.00000037,0.00014586,0.00023061,0.00008799,0.00000322,0.00002391
 ,0.00000785,-0.00000369,-0.00000576,0.00000545,0.00000055,0.00000073,0
 .00000419,-0.00000352,-0.00000577,-0.00000026,0.00000008,0.00000406,-0
 .00000450,0.00000256,0.00000101,-0.00000154,0.00000381,0.00000091,-0.0
 0000230,0.00000061,0.00000013,0.00000254,0.00000248,-0.00000145,-0.000
 00064,0.00000055,-0.00000058,-0.00000155,-0.00000078,0.00000012,-0.000
 00178,-0.00000189,-0.00000137,0.00000059,0.00000135,-0.00000107,-0.000
 00107,-0.00000327,-0.00000242,0.00000126,-0.00000547,0.00000391,0.0000
 0596,0.00000251,-0.00000579,-0.00000053,-0.00000738,0.00000702,-0.0000
 0248,-0.00004830,-0.00006052,0.00013428,-0.00024740,0.00146883,0.00145
 627,-0.00006023,0.00001264,0.00001301,0.00025973,0.00142417,0.00055626
 ,0.00120163,0.00060429,0.00082716,-0.00012304,0.00021120,-0.00017479,-
 0.00023674,0.00002757,-0.00022680,-0.07625652,-0.26020280,-0.08500977,
 0.00029889,-0.00102829,0.00430881,-0.00068502,-0.00091404,-0.00127127,
 0.00006493,0.00018425,0.00038268,-0.00004077,0.00004246,0.00003671,0.0
 0040523,0.00071181,-0.00112237,0.00024094,0.00008252,0.00085064,-0.008
 17797,-0.01866079,-0.01195620,0.00017141,0.00025246,0.00005416,-0.0000
 0173,-0.00000286,-0.00000353,0.00001057,-0.00005378,0.00002577,-0.0000
 3716,0.00003336,-0.00006294,-0.00000084,-0.00000101,-0.00000513,-0.000
 01193,0.00003565,-0.00012479,-0.00003466,-0.00019428,0.00002308,-0.000
 00214,0.00006092,0.00001357,0.00027427,-0.00001322,0.00056866,-0.00000
 141,-0.00000568,-0.00000072,-0.00000416,-0.00001614,-0.00001026,-0.000
 00800,-0.00000577,0.00000591,0.00000149,-0.00000020,0.00000180,-0.0000
 4551,0.00004421,-0.00007955,0.00005145,-0.00002439,0.00004895,-0.00000
 110,-0.00000837,0.00000893,0.00000935,-0.00000363,0.00003152,0.0002720
 5,0.00023546,0.00036369,0.00002341,-0.00001293,-0.00001832,-0.00000007
 ,-0.00000448,-0.00000311,0.00002454,-0.00014938,0.00000067,0.08278408,
 0.27584205,0.00000074,0.00000134,-0.00000076,0.00000140,0.00000165,-0.
 00000190,0.00000036,0.00000113,-0.00000042,-0.00000147,0.00000301,0.00
 000148,0.00000160,0.00000140,0.00000206,0.00000071,0.00000103,-0.00000
 006,0.00000044,-0.00000116,-0.00000012,-0.00000015,-0.00000185,-0.0000
 0044,0.00000039,-0.00000216,0.00000167,-0.00000096,-0.00000097,-0.0000
 0054,-0.00000022,-0.00000089,0.00000025,0.00000474,0.00000151,0.000009
 12,0.00000353,-0.00002020,-0.00001829,0.00000630,0.,0.00000261,0.00000
 378,-0.00000741,-0.00000552,0.00002271,0.00006822,0.00002741,-0.000259
 32,-0.00017219,0.00001919,-0.00005288,0.00000709,0.00003896,0.00005958
 ,0.00005708,0.00000183,0.00016831,0.00025589,0.00008269,-0.00000470,0.
 00000342,0.00000175,-0.00000125,0.00000197,0.00000304,0.00000003,-0.00
 000164,0.00000204,-0.00000341,0.00000081,0.00000102,-0.00000051,0.0000
 0106,-0.00000049,0.00000087,0.00000073,-0.00000104,0.00000490,-0.00000
 158,-0.00000265,0.00000093,0.00000114,0.00000225,0.00000183,-0.0000004
 9,-0.00000066,-0.00000019,-0.00000061,-0.00000045,-0.00000031,-0.00000
 042,-0.00000263,-0.00000084,0.00000012,-0.00000051,-0.00000031,0.00000
 010,-0.00000026,-0.00000441,-0.00000320,-0.00000173,-0.00000150,0.0000
 0184,0.00000008,-0.00000027,0.00000018,-0.00000173,-0.00000228,-0.0000
 0073,-0.00000164,-0.00037667,-0.00186669,0.00007381,-0.00387826,0.0024
 1229,-0.00333560,-0.00009089,0.00005173,0.00008232,-0.00747489,-0.0267
 0370,-0.00693831,0.00149411,-0.00091781,-0.00009671,-0.00020879,0.0007
 3390,-0.00028008,-0.00013951,0.00042004,0.00017897,-0.03937072,-0.0851
 3731,-0.08698568,-0.00224731,0.00332743,-0.00192819,0.00003108,0.00084
 820,0.00090822,-0.00032852,-0.00036785,0.00001058,-0.00010587,-0.00000
 882,0.00003449,0.00165516,0.00079076,0.00002839,-0.00021145,-0.0000998
 6,-0.00025471,0.00625162,0.01527122,0.00954598,0.00003076,0.00039665,-
 0.00057234,-0.00000288,-0.00000362,0.00000171,0.00000174,0.00000653,-0
 .00000535,0.00001667,-0.00002121,0.00002772,0.00000252,0.00000378,0.00
 000315,0.00005422,0.00001280,0.00002546,-0.00001558,0.00010336,0.00007
 469,-0.00002294,-0.00001690,0.00001125,0.00019649,0.00019584,-0.000390
 90,-0.00000259,-0.00000181,0.00000157,-0.00000986,-0.00000174,-0.00004
 350,-0.00001009,0.00004305,0.00004038,0.00000128,-0.00000557,0.0000010
 8,-0.00010361,-0.00012874,-0.00006144,0.00008229,-0.00005575,0.0000473
 8,0.00000303,-0.00003905,0.00004823,-0.00000375,0.00001469,-0.00002332
 ,-0.00002317,0.00032398,-0.00040965,0.00000267,-0.00008947,-0.00015418
 ,0.00000070,-0.00000208,-0.00000029,0.00008554,0.00008610,-0.00003841,
 0.04476928,0.09023043,0.09021766\\0.00000382,-0.00000131,-0.00000027,-
 0.00000379,0.00000059,0.00000106,-0.00001259,0.00000329,-0.00001120,0.
 00000140,-0.00000152,0.00000511,-0.00000284,0.00000237,0.00000374,0.00
 000835,0.00000107,-0.00000115,-0.00000113,0.00000123,-0.00000106,0.000
 00279,-0.00000095,-0.00000045,0.00000102,0.00000186,0.00000023,-0.0000
 0083,0.00000024,-0.00000061,-0.00000088,0.00000026,-0.00000076,0.00001
 683,-0.00000253,0.00000264,-0.00000786,0.00000346,0.00000153,-0.000000
 47,-0.00000002,0.00000087,0.00000143,-0.00000138,-0.00000362,0.0000061
 3,-0.00001223,-0.00000862,-0.00001288,0.00001785,-0.00000488,0.0000028
 7,-0.00000221,0.00002060,0.00000458,0.00000133,0.00000343,-0.00000182,
 -0.00000991,-0.00000551,-0.00000387,0.00000768,0.00001352,0.00000467,-
 0.00000032,-0.00000885,0.00000179,-0.00000191,0.00000003,-0.00000045,0
 .00000094,-0.00000124,-0.00000643,-0.00000257,0.00000817,0.00000536,-0
 .00000148,-0.00000399,-0.00000384,0.00000044,0.00000290,-0.00000397,0.
 00000276,-0.00000161,0.00000434,-0.00000405,-0.00000252,-0.00000099,-0
 .00000140,0.00000024,0.00000035,-0.00000149,0.00000045,0.00000162,0.00
 000022,-0.00000038,-0.00000102,-0.00000095,0.00000011,0.00000062,-0.00
 000069,-0.00000143,-0.00000403,0.00000061,-0.00000187,-0.00000121,0.00
 000080,0.00000095,0.00000109,-0.00000183,0.00000263,-0.00001126,-0.000
 00400,-0.00000339,0.00000242,-0.00000102,0.00000001,0.00000002,-0.0000
 0114,-0.00000157,0.00000765,0.00000054,0.00000502,-0.00000879,0.000000
 91,-0.00000732,-0.00000091,-0.00000019,-0.00000005,0.00000813,0.000005
 43,0.00000402,-0.00000418,-0.00000298,-0.00000102,-0.00000250,0.000000
 57,0.00000506,0.00000387,-0.00000576,-0.00000259,0.00000203,0.00001171
 ,0.00000072,0.00000066,0.00000016,0.00000015,0.00000088,-0.00000639,0.
 00000691,0.00000032,0.00000135,-0.00000118,0.00000422,0.00000579,-0.00
 000927,0.00000218,-0.00000239,0.00000303,0.00000001,-0.00000162,0.0000
 0135,-0.00000716,0.00000678,-0.00000403,0.00001024,-0.00000619,0.00000
 238,0.00000054,-0.00000014,0.00000005,-0.00000556,0.00000141,0.0000023
 1,0.00000007,0.00000678,0.00000098,0.00000175,-0.00001093,-0.00000212,
 -0.00000085,0.00000218,-0.00000308,-0.00000203,0.00000002,0.00000089,-
 0.00000676,-0.00000019,0.00001188,0.00000797,-0.00000687,-0.00000741,0
 .00000156,0.00000103,0.00000185,-0.00000645,0.00000533,0.00000979,-0.0
 0000121,0.00000062,-0.00000182,0.00000412,-0.00000182,-0.00000766,-0.0
 0000065,0.00000274,0.00000252,0.00000041,0.00000071,-0.00001501,0.0000
 0007,-0.00000092,-0.00000008,0.00000022,-0.00000028,0.00000111,0.00000
 038,0.00000066,0.00000091,0.00000048,-0.00000015,-0.00000153\\\@


 BRING ME INTO THE COMPANY OF THOSE WHO SEEK TRUTH,
 AND DELIVER ME FROM THOSE WHO HAVE FOUND IT.
 Job cpu time:       1 days 11 hours 47 minutes 57.1 seconds.
 Elapsed time:       0 days  1 hours 16 minutes 47.0 seconds.
 File lengths (MBytes):  RWF=  12286 Int=      0 D2E=      0 Chk=    116 Scr=      2
 Normal termination of Gaussian 16 at Sun Jun  2 20:37:56 2019.
